Box of Si with a vacancy

  7999 atoms
  1    atom types
  0.0 54.30 xlo xhi
  0.0 54.30 ylo yhi
  0.0 54.30 zlo zhi
  0.0 0.0 0.0 xy xz yz

 Atoms

1	   1    0.000000    0.000000    0.000000
2	   1    0.000000    0.000000    5.430000
3	   1    0.000000    0.000000   10.860000
4	   1    0.000000    0.000000   16.289999
5	   1    0.000000    0.000000   21.719999
6	   1    0.000000    0.000000   27.150000
7	   1    0.000000    0.000000   32.579998
8	   1    0.000000    0.000000   38.009998
9	   1    0.000000    0.000000   43.439999
10	   1    0.000000    0.000000   48.869999
11	   1    0.000000    5.430000    0.000000
12	   1    0.000000    5.430000    5.430000
13	   1    0.000000    5.430000   10.860000
14	   1    0.000000    5.430000   16.289999
15	   1    0.000000    5.430000   21.719999
16	   1    0.000000    5.430000   27.150000
17	   1    0.000000    5.430000   32.579998
18	   1    0.000000    5.430000   38.009998
19	   1    0.000000    5.430000   43.439999
20	   1    0.000000    5.430000   48.869999
21	   1    0.000000   10.860000    0.000000
22	   1    0.000000   10.860000    5.430000
23	   1    0.000000   10.860000   10.860000
24	   1    0.000000   10.860000   16.289999
25	   1    0.000000   10.860000   21.719999
26	   1    0.000000   10.860000   27.150000
27	   1    0.000000   10.860000   32.579998
28	   1    0.000000   10.860000   38.009998
29	   1    0.000000   10.860000   43.439999
30	   1    0.000000   10.860000   48.869999
31	   1    0.000000   16.289999    0.000000
32	   1    0.000000   16.289999    5.430000
33	   1    0.000000   16.289999   10.860000
34	   1    0.000000   16.289999   16.289999
35	   1    0.000000   16.289999   21.719999
36	   1    0.000000   16.289999   27.150000
37	   1    0.000000   16.289999   32.579998
38	   1    0.000000   16.289999   38.009998
39	   1    0.000000   16.289999   43.439999
40	   1    0.000000   16.289999   48.869999
41	   1    0.000000   21.719999    0.000000
42	   1    0.000000   21.719999    5.430000
43	   1    0.000000   21.719999   10.860000
44	   1    0.000000   21.719999   16.289999
45	   1    0.000000   21.719999   21.719999
46	   1    0.000000   21.719999   27.150000
47	   1    0.000000   21.719999   32.579998
48	   1    0.000000   21.719999   38.009998
49	   1    0.000000   21.719999   43.439999
50	   1    0.000000   21.719999   48.869999
51	   1    0.000000   27.150000    0.000000
52	   1    0.000000   27.150000    5.430000
53	   1    0.000000   27.150000   10.860000
54	   1    0.000000   27.150000   16.289999
55	   1    0.000000   27.150000   21.719999
56	   1    0.000000   27.150000   27.150000
57	   1    0.000000   27.150000   32.579998
58	   1    0.000000   27.150000   38.009998
59	   1    0.000000   27.150000   43.439999
60	   1    0.000000   27.150000   48.869999
61	   1    0.000000   32.579998    0.000000
62	   1    0.000000   32.579998    5.430000
63	   1    0.000000   32.579998   10.860000
64	   1    0.000000   32.579998   16.289999
65	   1    0.000000   32.579998   21.719999
66	   1    0.000000   32.579998   27.150000
67	   1    0.000000   32.579998   32.579998
68	   1    0.000000   32.579998   38.009998
69	   1    0.000000   32.579998   43.439999
70	   1    0.000000   32.579998   48.869999
71	   1    0.000000   38.009998    0.000000
72	   1    0.000000   38.009998    5.430000
73	   1    0.000000   38.009998   10.860000
74	   1    0.000000   38.009998   16.289999
75	   1    0.000000   38.009998   21.719999
76	   1    0.000000   38.009998   27.150000
77	   1    0.000000   38.009998   32.579998
78	   1    0.000000   38.009998   38.009998
79	   1    0.000000   38.009998   43.439999
80	   1    0.000000   38.009998   48.869999
81	   1    0.000000   43.439999    0.000000
82	   1    0.000000   43.439999    5.430000
83	   1    0.000000   43.439999   10.860000
84	   1    0.000000   43.439999   16.289999
85	   1    0.000000   43.439999   21.719999
86	   1    0.000000   43.439999   27.150000
87	   1    0.000000   43.439999   32.579998
88	   1    0.000000   43.439999   38.009998
89	   1    0.000000   43.439999   43.439999
90	   1    0.000000   43.439999   48.869999
91	   1    0.000000   48.869999    0.000000
92	   1    0.000000   48.869999    5.430000
93	   1    0.000000   48.869999   10.860000
94	   1    0.000000   48.869999   16.289999
95	   1    0.000000   48.869999   21.719999
96	   1    0.000000   48.869999   27.150000
97	   1    0.000000   48.869999   32.579998
98	   1    0.000000   48.869999   38.009998
99	   1    0.000000   48.869999   43.439999
100	   1    0.000000   48.869999   48.869999
101	   1    5.430000    0.000000    0.000000
102	   1    5.430000    0.000000    5.430000
103	   1    5.430000    0.000000   10.860000
104	   1    5.430000    0.000000   16.289999
105	   1    5.430000    0.000000   21.719999
106	   1    5.430000    0.000000   27.150000
107	   1    5.430000    0.000000   32.579998
108	   1    5.430000    0.000000   38.009998
109	   1    5.430000    0.000000   43.439999
110	   1    5.430000    0.000000   48.869999
111	   1    5.430000    5.430000    0.000000
112	   1    5.430000    5.430000    5.430000
113	   1    5.430000    5.430000   10.860000
114	   1    5.430000    5.430000   16.289999
115	   1    5.430000    5.430000   21.719999
116	   1    5.430000    5.430000   27.150000
117	   1    5.430000    5.430000   32.579998
118	   1    5.430000    5.430000   38.009998
119	   1    5.430000    5.430000   43.439999
120	   1    5.430000    5.430000   48.869999
121	   1    5.430000   10.860000    0.000000
122	   1    5.430000   10.860000    5.430000
123	   1    5.430000   10.860000   10.860000
124	   1    5.430000   10.860000   16.289999
125	   1    5.430000   10.860000   21.719999
126	   1    5.430000   10.860000   27.150000
127	   1    5.430000   10.860000   32.579998
128	   1    5.430000   10.860000   38.009998
129	   1    5.430000   10.860000   43.439999
130	   1    5.430000   10.860000   48.869999
131	   1    5.430000   16.289999    0.000000
132	   1    5.430000   16.289999    5.430000
133	   1    5.430000   16.289999   10.860000
134	   1    5.430000   16.289999   16.289999
135	   1    5.430000   16.289999   21.719999
136	   1    5.430000   16.289999   27.150000
137	   1    5.430000   16.289999   32.579998
138	   1    5.430000   16.289999   38.009998
139	   1    5.430000   16.289999   43.439999
140	   1    5.430000   16.289999   48.869999
141	   1    5.430000   21.719999    0.000000
142	   1    5.430000   21.719999    5.430000
143	   1    5.430000   21.719999   10.860000
144	   1    5.430000   21.719999   16.289999
145	   1    5.430000   21.719999   21.719999
146	   1    5.430000   21.719999   27.150000
147	   1    5.430000   21.719999   32.579998
148	   1    5.430000   21.719999   38.009998
149	   1    5.430000   21.719999   43.439999
150	   1    5.430000   21.719999   48.869999
151	   1    5.430000   27.150000    0.000000
152	   1    5.430000   27.150000    5.430000
153	   1    5.430000   27.150000   10.860000
154	   1    5.430000   27.150000   16.289999
155	   1    5.430000   27.150000   21.719999
156	   1    5.430000   27.150000   27.150000
157	   1    5.430000   27.150000   32.579998
158	   1    5.430000   27.150000   38.009998
159	   1    5.430000   27.150000   43.439999
160	   1    5.430000   27.150000   48.869999
161	   1    5.430000   32.579998    0.000000
162	   1    5.430000   32.579998    5.430000
163	   1    5.430000   32.579998   10.860000
164	   1    5.430000   32.579998   16.289999
165	   1    5.430000   32.579998   21.719999
166	   1    5.430000   32.579998   27.150000
167	   1    5.430000   32.579998   32.579998
168	   1    5.430000   32.579998   38.009998
169	   1    5.430000   32.579998   43.439999
170	   1    5.430000   32.579998   48.869999
171	   1    5.430000   38.009998    0.000000
172	   1    5.430000   38.009998    5.430000
173	   1    5.430000   38.009998   10.860000
174	   1    5.430000   38.009998   16.289999
175	   1    5.430000   38.009998   21.719999
176	   1    5.430000   38.009998   27.150000
177	   1    5.430000   38.009998   32.579998
178	   1    5.430000   38.009998   38.009998
179	   1    5.430000   38.009998   43.439999
180	   1    5.430000   38.009998   48.869999
181	   1    5.430000   43.439999    0.000000
182	   1    5.430000   43.439999    5.430000
183	   1    5.430000   43.439999   10.860000
184	   1    5.430000   43.439999   16.289999
185	   1    5.430000   43.439999   21.719999
186	   1    5.430000   43.439999   27.150000
187	   1    5.430000   43.439999   32.579998
188	   1    5.430000   43.439999   38.009998
189	   1    5.430000   43.439999   43.439999
190	   1    5.430000   43.439999   48.869999
191	   1    5.430000   48.869999    0.000000
192	   1    5.430000   48.869999    5.430000
193	   1    5.430000   48.869999   10.860000
194	   1    5.430000   48.869999   16.289999
195	   1    5.430000   48.869999   21.719999
196	   1    5.430000   48.869999   27.150000
197	   1    5.430000   48.869999   32.579998
198	   1    5.430000   48.869999   38.009998
199	   1    5.430000   48.869999   43.439999
200	   1    5.430000   48.869999   48.869999
201	   1   10.860000    0.000000    0.000000
202	   1   10.860000    0.000000    5.430000
203	   1   10.860000    0.000000   10.860000
204	   1   10.860000    0.000000   16.289999
205	   1   10.860000    0.000000   21.719999
206	   1   10.860000    0.000000   27.150000
207	   1   10.860000    0.000000   32.579998
208	   1   10.860000    0.000000   38.009998
209	   1   10.860000    0.000000   43.439999
210	   1   10.860000    0.000000   48.869999
211	   1   10.860000    5.430000    0.000000
212	   1   10.860000    5.430000    5.430000
213	   1   10.860000    5.430000   10.860000
214	   1   10.860000    5.430000   16.289999
215	   1   10.860000    5.430000   21.719999
216	   1   10.860000    5.430000   27.150000
217	   1   10.860000    5.430000   32.579998
218	   1   10.860000    5.430000   38.009998
219	   1   10.860000    5.430000   43.439999
220	   1   10.860000    5.430000   48.869999
221	   1   10.860000   10.860000    0.000000
222	   1   10.860000   10.860000    5.430000
223	   1   10.860000   10.860000   10.860000
224	   1   10.860000   10.860000   16.289999
225	   1   10.860000   10.860000   21.719999
226	   1   10.860000   10.860000   27.150000
227	   1   10.860000   10.860000   32.579998
228	   1   10.860000   10.860000   38.009998
229	   1   10.860000   10.860000   43.439999
230	   1   10.860000   10.860000   48.869999
231	   1   10.860000   16.289999    0.000000
232	   1   10.860000   16.289999    5.430000
233	   1   10.860000   16.289999   10.860000
234	   1   10.860000   16.289999   16.289999
235	   1   10.860000   16.289999   21.719999
236	   1   10.860000   16.289999   27.150000
237	   1   10.860000   16.289999   32.579998
238	   1   10.860000   16.289999   38.009998
239	   1   10.860000   16.289999   43.439999
240	   1   10.860000   16.289999   48.869999
241	   1   10.860000   21.719999    0.000000
242	   1   10.860000   21.719999    5.430000
243	   1   10.860000   21.719999   10.860000
244	   1   10.860000   21.719999   16.289999
245	   1   10.860000   21.719999   21.719999
246	   1   10.860000   21.719999   27.150000
247	   1   10.860000   21.719999   32.579998
248	   1   10.860000   21.719999   38.009998
249	   1   10.860000   21.719999   43.439999
250	   1   10.860000   21.719999   48.869999
251	   1   10.860000   27.150000    0.000000
252	   1   10.860000   27.150000    5.430000
253	   1   10.860000   27.150000   10.860000
254	   1   10.860000   27.150000   16.289999
255	   1   10.860000   27.150000   21.719999
256	   1   10.860000   27.150000   27.150000
257	   1   10.860000   27.150000   32.579998
258	   1   10.860000   27.150000   38.009998
259	   1   10.860000   27.150000   43.439999
260	   1   10.860000   27.150000   48.869999
261	   1   10.860000   32.579998    0.000000
262	   1   10.860000   32.579998    5.430000
263	   1   10.860000   32.579998   10.860000
264	   1   10.860000   32.579998   16.289999
265	   1   10.860000   32.579998   21.719999
266	   1   10.860000   32.579998   27.150000
267	   1   10.860000   32.579998   32.579998
268	   1   10.860000   32.579998   38.009998
269	   1   10.860000   32.579998   43.439999
270	   1   10.860000   32.579998   48.869999
271	   1   10.860000   38.009998    0.000000
272	   1   10.860000   38.009998    5.430000
273	   1   10.860000   38.009998   10.860000
274	   1   10.860000   38.009998   16.289999
275	   1   10.860000   38.009998   21.719999
276	   1   10.860000   38.009998   27.150000
277	   1   10.860000   38.009998   32.579998
278	   1   10.860000   38.009998   38.009998
279	   1   10.860000   38.009998   43.439999
280	   1   10.860000   38.009998   48.869999
281	   1   10.860000   43.439999    0.000000
282	   1   10.860000   43.439999    5.430000
283	   1   10.860000   43.439999   10.860000
284	   1   10.860000   43.439999   16.289999
285	   1   10.860000   43.439999   21.719999
286	   1   10.860000   43.439999   27.150000
287	   1   10.860000   43.439999   32.579998
288	   1   10.860000   43.439999   38.009998
289	   1   10.860000   43.439999   43.439999
290	   1   10.860000   43.439999   48.869999
291	   1   10.860000   48.869999    0.000000
292	   1   10.860000   48.869999    5.430000
293	   1   10.860000   48.869999   10.860000
294	   1   10.860000   48.869999   16.289999
295	   1   10.860000   48.869999   21.719999
296	   1   10.860000   48.869999   27.150000
297	   1   10.860000   48.869999   32.579998
298	   1   10.860000   48.869999   38.009998
299	   1   10.860000   48.869999   43.439999
300	   1   10.860000   48.869999   48.869999
301	   1   16.289999    0.000000    0.000000
302	   1   16.289999    0.000000    5.430000
303	   1   16.289999    0.000000   10.860000
304	   1   16.289999    0.000000   16.289999
305	   1   16.289999    0.000000   21.719999
306	   1   16.289999    0.000000   27.150000
307	   1   16.289999    0.000000   32.579998
308	   1   16.289999    0.000000   38.009998
309	   1   16.289999    0.000000   43.439999
310	   1   16.289999    0.000000   48.869999
311	   1   16.289999    5.430000    0.000000
312	   1   16.289999    5.430000    5.430000
313	   1   16.289999    5.430000   10.860000
314	   1   16.289999    5.430000   16.289999
315	   1   16.289999    5.430000   21.719999
316	   1   16.289999    5.430000   27.150000
317	   1   16.289999    5.430000   32.579998
318	   1   16.289999    5.430000   38.009998
319	   1   16.289999    5.430000   43.439999
320	   1   16.289999    5.430000   48.869999
321	   1   16.289999   10.860000    0.000000
322	   1   16.289999   10.860000    5.430000
323	   1   16.289999   10.860000   10.860000
324	   1   16.289999   10.860000   16.289999
325	   1   16.289999   10.860000   21.719999
326	   1   16.289999   10.860000   27.150000
327	   1   16.289999   10.860000   32.579998
328	   1   16.289999   10.860000   38.009998
329	   1   16.289999   10.860000   43.439999
330	   1   16.289999   10.860000   48.869999
331	   1   16.289999   16.289999    0.000000
332	   1   16.289999   16.289999    5.430000
333	   1   16.289999   16.289999   10.860000
334	   1   16.289999   16.289999   16.289999
335	   1   16.289999   16.289999   21.719999
336	   1   16.289999   16.289999   27.150000
337	   1   16.289999   16.289999   32.579998
338	   1   16.289999   16.289999   38.009998
339	   1   16.289999   16.289999   43.439999
340	   1   16.289999   16.289999   48.869999
341	   1   16.289999   21.719999    0.000000
342	   1   16.289999   21.719999    5.430000
343	   1   16.289999   21.719999   10.860000
344	   1   16.289999   21.719999   16.289999
345	   1   16.289999   21.719999   21.719999
346	   1   16.289999   21.719999   27.150000
347	   1   16.289999   21.719999   32.579998
348	   1   16.289999   21.719999   38.009998
349	   1   16.289999   21.719999   43.439999
350	   1   16.289999   21.719999   48.869999
351	   1   16.289999   27.150000    0.000000
352	   1   16.289999   27.150000    5.430000
353	   1   16.289999   27.150000   10.860000
354	   1   16.289999   27.150000   16.289999
355	   1   16.289999   27.150000   21.719999
356	   1   16.289999   27.150000   27.150000
357	   1   16.289999   27.150000   32.579998
358	   1   16.289999   27.150000   38.009998
359	   1   16.289999   27.150000   43.439999
360	   1   16.289999   27.150000   48.869999
361	   1   16.289999   32.579998    0.000000
362	   1   16.289999   32.579998    5.430000
363	   1   16.289999   32.579998   10.860000
364	   1   16.289999   32.579998   16.289999
365	   1   16.289999   32.579998   21.719999
366	   1   16.289999   32.579998   27.150000
367	   1   16.289999   32.579998   32.579998
368	   1   16.289999   32.579998   38.009998
369	   1   16.289999   32.579998   43.439999
370	   1   16.289999   32.579998   48.869999
371	   1   16.289999   38.009998    0.000000
372	   1   16.289999   38.009998    5.430000
373	   1   16.289999   38.009998   10.860000
374	   1   16.289999   38.009998   16.289999
375	   1   16.289999   38.009998   21.719999
376	   1   16.289999   38.009998   27.150000
377	   1   16.289999   38.009998   32.579998
378	   1   16.289999   38.009998   38.009998
379	   1   16.289999   38.009998   43.439999
380	   1   16.289999   38.009998   48.869999
381	   1   16.289999   43.439999    0.000000
382	   1   16.289999   43.439999    5.430000
383	   1   16.289999   43.439999   10.860000
384	   1   16.289999   43.439999   16.289999
385	   1   16.289999   43.439999   21.719999
386	   1   16.289999   43.439999   27.150000
387	   1   16.289999   43.439999   32.579998
388	   1   16.289999   43.439999   38.009998
389	   1   16.289999   43.439999   43.439999
390	   1   16.289999   43.439999   48.869999
391	   1   16.289999   48.869999    0.000000
392	   1   16.289999   48.869999    5.430000
393	   1   16.289999   48.869999   10.860000
394	   1   16.289999   48.869999   16.289999
395	   1   16.289999   48.869999   21.719999
396	   1   16.289999   48.869999   27.150000
397	   1   16.289999   48.869999   32.579998
398	   1   16.289999   48.869999   38.009998
399	   1   16.289999   48.869999   43.439999
400	   1   16.289999   48.869999   48.869999
401	   1   21.719999    0.000000    0.000000
402	   1   21.719999    0.000000    5.430000
403	   1   21.719999    0.000000   10.860000
404	   1   21.719999    0.000000   16.289999
405	   1   21.719999    0.000000   21.719999
406	   1   21.719999    0.000000   27.150000
407	   1   21.719999    0.000000   32.579998
408	   1   21.719999    0.000000   38.009998
409	   1   21.719999    0.000000   43.439999
410	   1   21.719999    0.000000   48.869999
411	   1   21.719999    5.430000    0.000000
412	   1   21.719999    5.430000    5.430000
413	   1   21.719999    5.430000   10.860000
414	   1   21.719999    5.430000   16.289999
415	   1   21.719999    5.430000   21.719999
416	   1   21.719999    5.430000   27.150000
417	   1   21.719999    5.430000   32.579998
418	   1   21.719999    5.430000   38.009998
419	   1   21.719999    5.430000   43.439999
420	   1   21.719999    5.430000   48.869999
421	   1   21.719999   10.860000    0.000000
422	   1   21.719999   10.860000    5.430000
423	   1   21.719999   10.860000   10.860000
424	   1   21.719999   10.860000   16.289999
425	   1   21.719999   10.860000   21.719999
426	   1   21.719999   10.860000   27.150000
427	   1   21.719999   10.860000   32.579998
428	   1   21.719999   10.860000   38.009998
429	   1   21.719999   10.860000   43.439999
430	   1   21.719999   10.860000   48.869999
431	   1   21.719999   16.289999    0.000000
432	   1   21.719999   16.289999    5.430000
433	   1   21.719999   16.289999   10.860000
434	   1   21.719999   16.289999   16.289999
435	   1   21.719999   16.289999   21.719999
436	   1   21.719999   16.289999   27.150000
437	   1   21.719999   16.289999   32.579998
438	   1   21.719999   16.289999   38.009998
439	   1   21.719999   16.289999   43.439999
440	   1   21.719999   16.289999   48.869999
441	   1   21.719999   21.719999    0.000000
442	   1   21.719999   21.719999    5.430000
443	   1   21.719999   21.719999   10.860000
444	   1   21.719999   21.719999   16.289999
445	   1   21.719999   21.719999   27.150000
446	   1   21.719999   21.719999   32.579998
447	   1   21.719999   21.719999   38.009998
448	   1   21.719999   21.719999   43.439999
449	   1   21.719999   21.719999   48.869999
450	   1   21.719999   27.150000    0.000000
451	   1   21.719999   27.150000    5.430000
452	   1   21.719999   27.150000   10.860000
453	   1   21.719999   27.150000   16.289999
454	   1   21.719999   27.150000   21.719999
455	   1   21.719999   27.150000   27.150000
456	   1   21.719999   27.150000   32.579998
457	   1   21.719999   27.150000   38.009998
458	   1   21.719999   27.150000   43.439999
459	   1   21.719999   27.150000   48.869999
460	   1   21.719999   32.579998    0.000000
461	   1   21.719999   32.579998    5.430000
462	   1   21.719999   32.579998   10.860000
463	   1   21.719999   32.579998   16.289999
464	   1   21.719999   32.579998   21.719999
465	   1   21.719999   32.579998   27.150000
466	   1   21.719999   32.579998   32.579998
467	   1   21.719999   32.579998   38.009998
468	   1   21.719999   32.579998   43.439999
469	   1   21.719999   32.579998   48.869999
470	   1   21.719999   38.009998    0.000000
471	   1   21.719999   38.009998    5.430000
472	   1   21.719999   38.009998   10.860000
473	   1   21.719999   38.009998   16.289999
474	   1   21.719999   38.009998   21.719999
475	   1   21.719999   38.009998   27.150000
476	   1   21.719999   38.009998   32.579998
477	   1   21.719999   38.009998   38.009998
478	   1   21.719999   38.009998   43.439999
479	   1   21.719999   38.009998   48.869999
480	   1   21.719999   43.439999    0.000000
481	   1   21.719999   43.439999    5.430000
482	   1   21.719999   43.439999   10.860000
483	   1   21.719999   43.439999   16.289999
484	   1   21.719999   43.439999   21.719999
485	   1   21.719999   43.439999   27.150000
486	   1   21.719999   43.439999   32.579998
487	   1   21.719999   43.439999   38.009998
488	   1   21.719999   43.439999   43.439999
489	   1   21.719999   43.439999   48.869999
490	   1   21.719999   48.869999    0.000000
491	   1   21.719999   48.869999    5.430000
492	   1   21.719999   48.869999   10.860000
493	   1   21.719999   48.869999   16.289999
494	   1   21.719999   48.869999   21.719999
495	   1   21.719999   48.869999   27.150000
496	   1   21.719999   48.869999   32.579998
497	   1   21.719999   48.869999   38.009998
498	   1   21.719999   48.869999   43.439999
499	   1   21.719999   48.869999   48.869999
500	   1   27.150000    0.000000    0.000000
501	   1   27.150000    0.000000    5.430000
502	   1   27.150000    0.000000   10.860000
503	   1   27.150000    0.000000   16.289999
504	   1   27.150000    0.000000   21.719999
505	   1   27.150000    0.000000   27.150000
506	   1   27.150000    0.000000   32.579998
507	   1   27.150000    0.000000   38.009998
508	   1   27.150000    0.000000   43.439999
509	   1   27.150000    0.000000   48.869999
510	   1   27.150000    5.430000    0.000000
511	   1   27.150000    5.430000    5.430000
512	   1   27.150000    5.430000   10.860000
513	   1   27.150000    5.430000   16.289999
514	   1   27.150000    5.430000   21.719999
515	   1   27.150000    5.430000   27.150000
516	   1   27.150000    5.430000   32.579998
517	   1   27.150000    5.430000   38.009998
518	   1   27.150000    5.430000   43.439999
519	   1   27.150000    5.430000   48.869999
520	   1   27.150000   10.860000    0.000000
521	   1   27.150000   10.860000    5.430000
522	   1   27.150000   10.860000   10.860000
523	   1   27.150000   10.860000   16.289999
524	   1   27.150000   10.860000   21.719999
525	   1   27.150000   10.860000   27.150000
526	   1   27.150000   10.860000   32.579998
527	   1   27.150000   10.860000   38.009998
528	   1   27.150000   10.860000   43.439999
529	   1   27.150000   10.860000   48.869999
530	   1   27.150000   16.289999    0.000000
531	   1   27.150000   16.289999    5.430000
532	   1   27.150000   16.289999   10.860000
533	   1   27.150000   16.289999   16.289999
534	   1   27.150000   16.289999   21.719999
535	   1   27.150000   16.289999   27.150000
536	   1   27.150000   16.289999   32.579998
537	   1   27.150000   16.289999   38.009998
538	   1   27.150000   16.289999   43.439999
539	   1   27.150000   16.289999   48.869999
540	   1   27.150000   21.719999    0.000000
541	   1   27.150000   21.719999    5.430000
542	   1   27.150000   21.719999   10.860000
543	   1   27.150000   21.719999   16.289999
544	   1   27.150000   21.719999   21.719999
545	   1   27.150000   21.719999   27.150000
546	   1   27.150000   21.719999   32.579998
547	   1   27.150000   21.719999   38.009998
548	   1   27.150000   21.719999   43.439999
549	   1   27.150000   21.719999   48.869999
550	   1   27.150000   27.150000    0.000000
551	   1   27.150000   27.150000    5.430000
552	   1   27.150000   27.150000   10.860000
553	   1   27.150000   27.150000   16.289999
554	   1   27.150000   27.150000   21.719999
555	   1   27.150000   27.150000   27.150000
556	   1   27.150000   27.150000   32.579998
557	   1   27.150000   27.150000   38.009998
558	   1   27.150000   27.150000   43.439999
559	   1   27.150000   27.150000   48.869999
560	   1   27.150000   32.579998    0.000000
561	   1   27.150000   32.579998    5.430000
562	   1   27.150000   32.579998   10.860000
563	   1   27.150000   32.579998   16.289999
564	   1   27.150000   32.579998   21.719999
565	   1   27.150000   32.579998   27.150000
566	   1   27.150000   32.579998   32.579998
567	   1   27.150000   32.579998   38.009998
568	   1   27.150000   32.579998   43.439999
569	   1   27.150000   32.579998   48.869999
570	   1   27.150000   38.009998    0.000000
571	   1   27.150000   38.009998    5.430000
572	   1   27.150000   38.009998   10.860000
573	   1   27.150000   38.009998   16.289999
574	   1   27.150000   38.009998   21.719999
575	   1   27.150000   38.009998   27.150000
576	   1   27.150000   38.009998   32.579998
577	   1   27.150000   38.009998   38.009998
578	   1   27.150000   38.009998   43.439999
579	   1   27.150000   38.009998   48.869999
580	   1   27.150000   43.439999    0.000000
581	   1   27.150000   43.439999    5.430000
582	   1   27.150000   43.439999   10.860000
583	   1   27.150000   43.439999   16.289999
584	   1   27.150000   43.439999   21.719999
585	   1   27.150000   43.439999   27.150000
586	   1   27.150000   43.439999   32.579998
587	   1   27.150000   43.439999   38.009998
588	   1   27.150000   43.439999   43.439999
589	   1   27.150000   43.439999   48.869999
590	   1   27.150000   48.869999    0.000000
591	   1   27.150000   48.869999    5.430000
592	   1   27.150000   48.869999   10.860000
593	   1   27.150000   48.869999   16.289999
594	   1   27.150000   48.869999   21.719999
595	   1   27.150000   48.869999   27.150000
596	   1   27.150000   48.869999   32.579998
597	   1   27.150000   48.869999   38.009998
598	   1   27.150000   48.869999   43.439999
599	   1   27.150000   48.869999   48.869999
600	   1   32.579998    0.000000    0.000000
601	   1   32.579998    0.000000    5.430000
602	   1   32.579998    0.000000   10.860000
603	   1   32.579998    0.000000   16.289999
604	   1   32.579998    0.000000   21.719999
605	   1   32.579998    0.000000   27.150000
606	   1   32.579998    0.000000   32.579998
607	   1   32.579998    0.000000   38.009998
608	   1   32.579998    0.000000   43.439999
609	   1   32.579998    0.000000   48.869999
610	   1   32.579998    5.430000    0.000000
611	   1   32.579998    5.430000    5.430000
612	   1   32.579998    5.430000   10.860000
613	   1   32.579998    5.430000   16.289999
614	   1   32.579998    5.430000   21.719999
615	   1   32.579998    5.430000   27.150000
616	   1   32.579998    5.430000   32.579998
617	   1   32.579998    5.430000   38.009998
618	   1   32.579998    5.430000   43.439999
619	   1   32.579998    5.430000   48.869999
620	   1   32.579998   10.860000    0.000000
621	   1   32.579998   10.860000    5.430000
622	   1   32.579998   10.860000   10.860000
623	   1   32.579998   10.860000   16.289999
624	   1   32.579998   10.860000   21.719999
625	   1   32.579998   10.860000   27.150000
626	   1   32.579998   10.860000   32.579998
627	   1   32.579998   10.860000   38.009998
628	   1   32.579998   10.860000   43.439999
629	   1   32.579998   10.860000   48.869999
630	   1   32.579998   16.289999    0.000000
631	   1   32.579998   16.289999    5.430000
632	   1   32.579998   16.289999   10.860000
633	   1   32.579998   16.289999   16.289999
634	   1   32.579998   16.289999   21.719999
635	   1   32.579998   16.289999   27.150000
636	   1   32.579998   16.289999   32.579998
637	   1   32.579998   16.289999   38.009998
638	   1   32.579998   16.289999   43.439999
639	   1   32.579998   16.289999   48.869999
640	   1   32.579998   21.719999    0.000000
641	   1   32.579998   21.719999    5.430000
642	   1   32.579998   21.719999   10.860000
643	   1   32.579998   21.719999   16.289999
644	   1   32.579998   21.719999   21.719999
645	   1   32.579998   21.719999   27.150000
646	   1   32.579998   21.719999   32.579998
647	   1   32.579998   21.719999   38.009998
648	   1   32.579998   21.719999   43.439999
649	   1   32.579998   21.719999   48.869999
650	   1   32.579998   27.150000    0.000000
651	   1   32.579998   27.150000    5.430000
652	   1   32.579998   27.150000   10.860000
653	   1   32.579998   27.150000   16.289999
654	   1   32.579998   27.150000   21.719999
655	   1   32.579998   27.150000   27.150000
656	   1   32.579998   27.150000   32.579998
657	   1   32.579998   27.150000   38.009998
658	   1   32.579998   27.150000   43.439999
659	   1   32.579998   27.150000   48.869999
660	   1   32.579998   32.579998    0.000000
661	   1   32.579998   32.579998    5.430000
662	   1   32.579998   32.579998   10.860000
663	   1   32.579998   32.579998   16.289999
664	   1   32.579998   32.579998   21.719999
665	   1   32.579998   32.579998   27.150000