
     Program PWSCF v.7.0 starts on 15Nov2022 at 12:14:28 

     This program is part of the open-source Quantum ESPRESSO suite
     for quantum simulation of materials; please cite
         "P. Giannozzi et al., J. Phys.:Condens. Matter 21 395502 (2009);
         "P. Giannozzi et al., J. Phys.:Condens. Matter 29 465901 (2017);
         "P. Giannozzi et al., J. Chem. Phys. 152 154105 (2020);
          URL http://www.quantum-espresso.org", 
     in publications or presentations arising from this work. More details at
     http://www.quantum-espresso.org/quote

     Parallel version (MPI), running on    16 processors

     MPI processes distributed on     1 nodes
     R & G space division:  proc/nbgrp/npool/nimage =      16
     117871 MiB available memory on the printing compute node when the environment starts
 
     Waiting for input...
     Reading input from standard input

     Current dimensions of program PWSCF are:
     Max number of different atomic species (ntypx) = 10
     Max number of k-points (npk) =  40000
     Max angular momentum in pseudopotentials (lmaxx) =  4
     file C.pbe-rrkjus.UPF: wavefunction(s)  2S 2P renormalized

     Subspace diagonalization in iterative solution of the eigenvalue problem:
     a serial algorithm will be used

 
     Parallelization info
     --------------------
     sticks:   dense  smooth     PW     G-vecs:    dense   smooth      PW
     Min         110      44     13                 4616     1166     188
     Max         111      45     14                 4619     1169     190
     Sum        1773     713    211                73883    18687    3023
 
     Using Slab Decomposition
 


     bravais-lattice index     =            0
     lattice parameter (alat)  =       4.6280  a.u.
     unit-cell volume          =    1545.1946 (a.u.)^3
     number of atoms/cell      =           11
     number of atomic types    =            1
     number of electrons       =        44.00
     number of Kohn-Sham states=           26
     kinetic-energy cutoff     =      20.0000  Ry
     charge density cutoff     =     200.0000  Ry
     scf convergence threshold =      1.0E-07
     mixing beta               =       0.7000
     number of iterations used =            8  plain     mixing
     energy convergence thresh.=      1.0E-04
     force convergence thresh. =      1.0E-03
     Exchange-correlation=  SLA  PW   PBE  PBE
                           (   1   4   3   4   0   0   0)
     nstep                     =          200


     celldm(1)=   4.628000  celldm(2)=   0.000000  celldm(3)=   0.000000
     celldm(4)=   0.000000  celldm(5)=   0.000000  celldm(6)=   0.000000

     crystal axes: (cart. coord. in units of alat)
               a(1) = (   3.000000   0.000000   0.000000 )  
               a(2) = (  -1.000000   1.732051   0.000000 )  
               a(3) = (   0.000000   0.000000   3.000000 )  

     reciprocal axes: (cart. coord. in units 2 pi/alat)
               b(1) = (  0.333333  0.192450  0.000000 )  
               b(2) = (  0.000000  0.577350  0.000000 )  
               b(3) = (  0.000000  0.000000  0.333333 )  


     PseudoPot. # 1 for C  read from file:
     ./C.pbe-rrkjus.UPF
     MD5 check sum: 00fb224312de0c5b6853bd333518df6f
     Pseudo is Ultrasoft, Zval =  4.0
     Generated by new atomic code, or converted to UPF format
     Using radial grid of  627 points,  4 beta functions with: 
                l(1) =   0
                l(2) =   0
                l(3) =   1
                l(4) =   1
     Q(r) pseudized with 0 coefficients 


     atomic species   valence    mass     pseudopotential
        C              4.00    12.01070     C ( 1.00)

     No symmetry found



   Cartesian axes

     site n.     atom                  positions (alat units)
         1           C   tau(   1) = (   0.0188317  -0.0072576   0.0000000  )
         2           C   tau(   2) = (  -0.5231929   0.8889916   0.0000000  )
         3           C   tau(   3) = (   1.0142618   0.0025478   0.0000000  )
         4           C   tau(   4) = (   0.4863172   0.8475431   0.0000000  )
         5           C   tau(   5) = (   1.9978560  -0.0075882   0.0000000  )
         6           C   tau(   6) = (   1.4969087   0.8747573   0.0000000  )
         7           C   tau(   7) = (  -0.4837103   1.4525567   0.0000000  )
         8           C   tau(   8) = (   0.9870614   0.5727580   0.0000000  )
         9           C   tau(   9) = (   0.4928733   1.4239221   0.0000000  )
        10           C   tau(  10) = (   2.0021891   0.5763980   0.0000000  )
        11           C   tau(  11) = (   1.5103568   1.4585666   0.0000000  )

     number of k points=     3  Marzari-Vanderbilt smearing, width (Ry)=  0.0100
                       cart. coord. in units 2pi/alat
        k(    1) = (   0.0833333   0.1443376  -0.1666667), wk =   0.6666667
        k(    2) = (   0.0833333  -0.2405626  -0.1666667), wk =   0.6666667
        k(    3) = (   0.0833333  -0.0481125  -0.1666667), wk =   0.6666667

     Dense  grid:    73883 G-vectors     FFT dimensions: (  64,  45,  64)

     Smooth grid:    18687 G-vectors     FFT dimensions: (  40,  27,  40)

     Estimated max dynamical RAM per process >       8.69 MB

     Estimated total dynamical RAM >     139.04 MB

     Initial potential from superposition of free atoms

     starting charge      43.9994, renormalised to      44.0000
     Starting wfcs are   44 randomized atomic wfcs

     total cpu time spent up to now is        0.1 secs

     Self-consistent Calculation

     iteration #  1     ecut=    20.00 Ry     beta= 0.70
     Davidson diagonalization with overlap
     ethr =  1.00E-02,  avg # of iterations =  2.0

     negative rho (up, down):  9.454E-08 0.000E+00

     total cpu time spent up to now is        0.1 secs

     total energy              =    -124.41916399 Ry
     estimated scf accuracy    <       1.08847239 Ry

     iteration #  2     ecut=    20.00 Ry     beta= 0.70
     Davidson diagonalization with overlap
     ethr =  2.47E-03,  avg # of iterations =  2.0

     negative rho (up, down):  2.823E-04 0.000E+00

     total cpu time spent up to now is        0.1 secs

     total energy              =    -124.35786136 Ry
     estimated scf accuracy    <       0.88061983 Ry

     iteration #  3     ecut=    20.00 Ry     beta= 0.70
     Davidson diagonalization with overlap
     ethr =  2.00E-03,  avg # of iterations =  2.3

     negative rho (up, down):  7.708E-05 0.000E+00

     total cpu time spent up to now is        0.2 secs

     total energy              =    -124.59033206 Ry
     estimated scf accuracy    <       0.44519680 Ry

     iteration #  4     ecut=    20.00 Ry     beta= 0.70
     Davidson diagonalization with overlap
     ethr =  1.01E-03,  avg # of iterations =  1.7

     negative rho (up, down):  3.284E-05 0.000E+00

     total cpu time spent up to now is        0.2 secs

     total energy              =    -124.64488746 Ry
     estimated scf accuracy    <       0.08422029 Ry

     iteration #  5     ecut=    20.00 Ry     beta= 0.70
     Davidson diagonalization with overlap
     ethr =  1.91E-04,  avg # of iterations =  2.0

     negative rho (up, down):  1.483E-05 0.000E+00

     total cpu time spent up to now is        0.3 secs

     total energy              =    -124.65592722 Ry
     estimated scf accuracy    <       0.01557760 Ry

     iteration #  6     ecut=    20.00 Ry     beta= 0.70
     Davidson diagonalization with overlap
     ethr =  3.54E-05,  avg # of iterations =  2.0

     negative rho (up, down):  1.276E-06 0.000E+00

     total cpu time spent up to now is        0.3 secs

     total energy              =    -124.65816819 Ry
     estimated scf accuracy    <       0.00563524 Ry

     iteration #  7     ecut=    20.00 Ry     beta= 0.70
     Davidson diagonalization with overlap
     ethr =  1.28E-05,  avg # of iterations =  2.0

     negative rho (up, down):  6.093E-07 0.000E+00

     total cpu time spent up to now is        0.3 secs

     total energy              =    -124.65866069 Ry
     estimated scf accuracy    <       0.00051605 Ry

     iteration #  8     ecut=    20.00 Ry     beta= 0.70
     Davidson diagonalization with overlap
     ethr =  1.17E-06,  avg # of iterations =  5.3

     negative rho (up, down):  7.658E-07 0.000E+00

     total cpu time spent up to now is        0.4 secs

     total energy              =    -124.65874237 Ry
     estimated scf accuracy    <       0.00066950 Ry

     iteration #  9     ecut=    20.00 Ry     beta= 0.70
     Davidson diagonalization with overlap
     ethr =  1.17E-06,  avg # of iterations =  2.0

     negative rho (up, down):  6.986E-07 0.000E+00

     total cpu time spent up to now is        0.4 secs

     total energy              =    -124.65881800 Ry
     estimated scf accuracy    <       0.00007973 Ry

     iteration # 10     ecut=    20.00 Ry     beta= 0.70
     Davidson diagonalization with overlap
     ethr =  1.81E-07,  avg # of iterations =  2.0

     negative rho (up, down):  6.980E-07 0.000E+00

     total cpu time spent up to now is        0.4 secs

     total energy              =    -124.65883097 Ry
     estimated scf accuracy    <       0.00001078 Ry

     iteration # 11     ecut=    20.00 Ry     beta= 0.70
     Davidson diagonalization with overlap
     ethr =  2.45E-08,  avg # of iterations =  2.3

     negative rho (up, down):  7.074E-07 0.000E+00

     total cpu time spent up to now is        0.5 secs

     total energy              =    -124.65883253 Ry
     estimated scf accuracy    <       0.00000171 Ry

     iteration # 12     ecut=    20.00 Ry     beta= 0.70
     Davidson diagonalization with overlap
     ethr =  3.89E-09,  avg # of iterations =  2.3

     negative rho (up, down):  7.104E-07 0.000E+00

     total cpu time spent up to now is        0.5 secs

     End of self-consistent calculation

          k = 0.0833 0.1443-0.1667 (  2328 PWs)   bands (ev):

   -18.5962 -17.7552 -15.6409 -14.8881 -13.8734 -12.7630 -11.9979 -11.2344
   -10.2052  -8.8245  -7.3619  -6.4811  -6.4496  -5.8308  -5.5505  -5.4999
    -4.4459  -3.5942  -3.1934  -2.5338  -1.5496   0.0839   0.3832   1.3990
     2.1434   2.9750

          k = 0.0833-0.2406-0.1667 (  2320 PWs)   bands (ev):

   -18.0932 -17.5142 -16.7920 -15.5545 -14.3755 -12.3539 -11.1041  -9.7065
    -8.8418  -8.4373  -8.0574  -7.5862  -6.7255  -5.8539  -5.7490  -5.2423
    -5.1371  -4.4223  -3.1926  -3.1225  -1.8149  -0.5949   0.1386   0.8698
     2.3512   4.1155

          k = 0.0833-0.0481-0.1667 (  2338 PWs)   bands (ev):

   -18.8455 -16.9718 -16.0389 -15.3074 -13.9252 -12.8342 -11.9430 -11.1160
    -9.3904  -8.4991  -7.9079  -6.8799  -6.8045  -5.9943  -5.0834  -4.6081
    -4.5123  -4.0911  -3.6092  -2.8517  -1.7177  -0.1079   0.6989   1.3887
     2.3167   3.2024

     the Fermi energy is     0.1224 ev

!    total energy              =    -124.65883271 Ry
     estimated scf accuracy    <       0.00000010 Ry
     smearing contrib. (-TS)   =      -0.00106680 Ry
     internal energy E=F+TS    =    -124.65776591 Ry

     convergence has been achieved in  12 iterations
  * IN ARTn_QE::          11
 Elements:C  
     |> Initialize_ARTn()
     |> NPERP_LIMITATION:: Actual nperp 4
     |> NPERP_LIMITATION::List: 4 8 12 16 -1
 --------------------------------------------------
  * ARTn::UNITS::E2au::      1.0000     au2E      1.0000    
  * ARTn::UNITS::L2au::      1.0000     au2L      1.0000    
  * ARTn::UNITS::T2au::      1.0000     au2T      1.0000    
  * ARTn::UNITS::F2au::      1.0000     au2F      1.0000    
  * ARTn::UNITS::H2au::      1.0000     au2H      1.0000    
  * ARTn::UNITS::Mass::      911.44    
 --------------------------------------------------

     Forces acting on atoms (cartesian axes, Ry/au):

     atom    1 type  1   force =     0.00000000    0.68358318    0.00000000
     atom    2 type  1   force =     0.00000000    0.00000000    0.00000000
     atom    3 type  1   force =     0.00000000    0.00000000    0.00000000
     atom    4 type  1   force =     0.00000000    0.00000000    0.00000000
     atom    5 type  1   force =     0.00000000    0.00000000    0.00000000
     atom    6 type  1   force =     0.00000000    0.00000000    0.00000000
     atom    7 type  1   force =     0.00000000    0.00000000    0.00000000
     atom    8 type  1   force =     0.00000000    0.00000000    0.00000000
     atom    9 type  1   force =     0.00000000    0.00000000    0.00000000
     atom   10 type  1   force =     0.00000000    0.00000000    0.00000000
     atom   11 type  1   force =     0.00000000    0.00000000    0.00000000

     Total force =     0.683583     Total SCF correction =     0.000594

     Entering FIRE :       iteration =     1

     FIRE Parameters: P = 0.00000000, dt = 20.00, alpha = 0.000 nsteppos =   1 at step  1


ATOMIC_POSITIONS (angstrom)
C             0.0461193990        0.1409790273        0.0000000000
C            -1.2813162550        2.1771688850        0.0000000000
C             2.4839598060        0.0062397630        0.0000000000
C             1.1910063690        2.0756602640        0.0000000000
C             4.8928136060       -0.0185837340        0.0000000000
C             3.6659776180        2.1423086150        0.0000000000
C            -1.1846221040        3.5573579920        0.0000000000
C             2.4173451830        1.4027028660        0.0000000000
C             1.2070625210        3.4872308590        0.0000000000
C             4.9034255330        1.4116172030        0.0000000000
C             3.6989123940        3.5720765730        0.0000000000



     Writing config-only to output data dir ./pwscf.save/
     NEW-OLD atomic charge density approx. for the potential

     negative rho (up, down):  6.860E-07 0.000E+00

     total cpu time spent up to now is        0.5 secs

     Self-consistent Calculation

     iteration #  1     ecut=    20.00 Ry     beta= 0.70
     Davidson diagonalization with overlap
     ethr =  1.00E-06,  avg # of iterations =  8.3

     negative rho (up, down):  5.482E-07 0.000E+00

     total cpu time spent up to now is        0.6 secs

     total energy              =    -124.63901714 Ry
     estimated scf accuracy    <       0.01179984 Ry

     iteration #  2     ecut=    20.00 Ry     beta= 0.70
     Davidson diagonalization with overlap
     ethr =  2.68E-05,  avg # of iterations =  2.7

     negative rho (up, down):  3.445E-06 0.000E+00

     total cpu time spent up to now is        0.7 secs

     total energy              =    -124.63938519 Ry
     estimated scf accuracy    <       0.01275037 Ry

     iteration #  3     ecut=    20.00 Ry     beta= 0.70
     Davidson diagonalization with overlap
     ethr =  2.68E-05,  avg # of iterations =  2.0

     negative rho (up, down):  8.569E-07 0.000E+00

     total cpu time spent up to now is        0.7 secs

     total energy              =    -124.64217876 Ry
     estimated scf accuracy    <       0.00261471 Ry

     iteration #  4     ecut=    20.00 Ry     beta= 0.70
     Davidson diagonalization with overlap
     ethr =  5.94E-06,  avg # of iterations =  2.0

     negative rho (up, down):  6.773E-07 0.000E+00

     total cpu time spent up to now is        0.7 secs

     total energy              =    -124.64261075 Ry
     estimated scf accuracy    <       0.00038828 Ry

     iteration #  5     ecut=    20.00 Ry     beta= 0.70
     Davidson diagonalization with overlap
     ethr =  8.82E-07,  avg # of iterations =  2.0

     negative rho (up, down):  6.932E-07 0.000E+00

     total cpu time spent up to now is        0.8 secs

     total energy              =    -124.64263254 Ry
     estimated scf accuracy    <       0.00067679 Ry

     iteration #  6     ecut=    20.00 Ry     beta= 0.70
     Davidson diagonalization with overlap
     ethr =  8.82E-07,  avg # of iterations =  1.0

     negative rho (up, down):  5.801E-07 0.000E+00

     total cpu time spent up to now is        0.8 secs

     total energy              =    -124.64271368 Ry
     estimated scf accuracy    <       0.00000724 Ry

     iteration #  7     ecut=    20.00 Ry     beta= 0.70
     Davidson diagonalization with overlap
     ethr =  1.65E-08,  avg # of iterations =  4.0

     negative rho (up, down):  5.727E-07 0.000E+00

     total cpu time spent up to now is        0.8 secs

     total energy              =    -124.64271582 Ry
     estimated scf accuracy    <       0.00000101 Ry

     iteration #  8     ecut=    20.00 Ry     beta= 0.70
     Davidson diagonalization with overlap
     ethr =  2.30E-09,  avg # of iterations =  2.3

     negative rho (up, down):  5.705E-07 0.000E+00

     total cpu time spent up to now is        0.9 secs

     total energy              =    -124.64271601 Ry
     estimated scf accuracy    <       0.00000030 Ry

     iteration #  9     ecut=    20.00 Ry     beta= 0.70
     Davidson diagonalization with overlap
     ethr =  6.83E-10,  avg # of iterations =  2.3

     negative rho (up, down):  5.703E-07 0.000E+00

     total cpu time spent up to now is        0.9 secs

     End of self-consistent calculation

          k = 0.0833 0.1443-0.1667 (  2328 PWs)   bands (ev):

   -18.5471 -17.5661 -15.6379 -14.6799 -13.7858 -12.7581 -11.8278 -11.1762
   -10.2426  -8.6360  -7.3716  -6.4418  -6.4220  -5.7900  -5.4346  -5.1705
    -4.4470  -3.8661  -3.1429  -2.4562  -1.4495   0.0298   0.4000   1.3391
     2.0616   2.9391

          k = 0.0833-0.2406-0.1667 (  2320 PWs)   bands (ev):

   -17.9433 -17.4871 -16.6822 -15.4549 -14.2739 -12.2272 -11.0206  -9.6457
    -8.8805  -8.3165  -7.9690  -7.5483  -6.7248  -5.7361  -5.4849  -5.2165
    -4.8026  -4.3490  -3.7136  -3.1492  -1.7538  -0.5590   0.0754   0.7545
     2.3774   3.9350

          k = 0.0833-0.0481-0.1667 (  2338 PWs)   bands (ev):

   -18.7704 -16.7938 -15.9910 -15.1533 -13.8424 -12.7996 -11.9272 -11.0417
    -9.3422  -8.2673  -7.8706  -6.7490  -6.5689  -6.0130  -4.9666  -4.6394
    -4.4987  -4.3607  -3.5762  -2.7361  -1.6147  -0.2268   0.7180   1.3578
     2.2610   3.0663

     the Fermi energy is     0.0682 ev

!    total energy              =    -124.64271606 Ry
     estimated scf accuracy    <       0.00000003 Ry
     smearing contrib. (-TS)   =      -0.00161842 Ry
     internal energy E=F+TS    =    -124.64109764 Ry

     convergence has been achieved in   9 iterations
  * IN ARTn_QE::          11
 Elements:C  

     Forces acting on atoms (cartesian axes, Ry/au):

     atom    1 type  1   force =     0.01627741    0.00000000   -0.00000000
     atom    2 type  1   force =    -0.02406373    0.01575793    0.00000000
     atom    3 type  1   force =    -0.00185352   -0.00675060    0.00000000
     atom    4 type  1   force =     0.01141638   -0.03035712   -0.00000000
     atom    5 type  1   force =    -0.00002966   -0.00871108    0.00000000
     atom    6 type  1   force =     0.01492883    0.01651159   -0.00000000
     atom    7 type  1   force =    -0.04373911    0.04006535    0.00000000
     atom    8 type  1   force =     0.00811337    0.00588643   -0.00000000
     atom    9 type  1   force =    -0.00759112    0.00374087    0.00000000
     atom   10 type  1   force =    -0.00349456   -0.00103577   -0.00000000
     atom   11 type  1   force =     0.03003572    0.06608610    0.00000000

     Total force =     0.108341     Total SCF correction =     0.000352

     Entering FIRE :       iteration =     2

     FIRE Parameters: P = 0.00000000, dt = 22.00, alpha = 0.198 nsteppos =   6 at step  2


ATOMIC_POSITIONS (angstrom)
C             0.0506934566        0.1409790273       -0.0000000000
C            -1.2880783195        2.1815969665        0.0000000000
C             2.4834389548        0.0043428001        0.0000000000
C             1.1942144463        2.0671297164       -0.0000000000
C             4.8928052712       -0.0210316053        0.0000000000
C             3.6701727154        2.1469484784       -0.0000000001
C            -1.1969130793        3.5686166164        0.0000000000
C             2.4196250933        1.4043569923       -0.0000000000
C             1.2049293656        3.4882820679        0.0000000000
C             4.9024435382        1.4113261440       -0.0000000000
C             3.7073526273        3.5906471983        0.0000000000



     Writing config-only to output data dir ./pwscf.save/
     NEW-OLD atomic charge density approx. for the potential

     negative rho (up, down):  5.715E-07 0.000E+00

     total cpu time spent up to now is        0.9 secs

     Self-consistent Calculation

     iteration #  1     ecut=    20.00 Ry     beta= 0.70
     Davidson diagonalization with overlap
     ethr =  1.00E-06,  avg # of iterations =  4.7

     negative rho (up, down):  5.691E-07 0.000E+00

     total cpu time spent up to now is        1.0 secs

     total energy              =    -124.64682015 Ry
     estimated scf accuracy    <       0.00159820 Ry

     iteration #  2     ecut=    20.00 Ry     beta= 0.70
     Davidson diagonalization with overlap
     ethr =  3.63E-06,  avg # of iterations =  4.3

     negative rho (up, down):  7.578E-06 0.000E+00

     total cpu time spent up to now is        1.0 secs

     total energy              =    -124.64585815 Ry
     estimated scf accuracy    <       0.01539732 Ry

     iteration #  3     ecut=    20.00 Ry     beta= 0.70
     Davidson diagonalization with overlap
     ethr =  3.63E-06,  avg # of iterations =  4.0

     negative rho (up, down):  8.944E-07 0.000E+00

     total cpu time spent up to now is        1.1 secs

     total energy              =    -124.64757748 Ry
     estimated scf accuracy    <       0.00037715 Ry

     iteration #  4     ecut=    20.00 Ry     beta= 0.70
     Davidson diagonalization with overlap
     ethr =  8.57E-07,  avg # of iterations =  2.0

     negative rho (up, down):  5.953E-07 0.000E+00

     total cpu time spent up to now is        1.1 secs

     total energy              =    -124.64765755 Ry
     estimated scf accuracy    <       0.00011172 Ry

     iteration #  5     ecut=    20.00 Ry     beta= 0.70
     Davidson diagonalization with overlap
     ethr =  2.54E-07,  avg # of iterations =  2.0

     negative rho (up, down):  5.737E-07 0.000E+00

     total cpu time spent up to now is        1.2 secs

     total energy              =    -124.64767580 Ry
     estimated scf accuracy    <       0.00000774 Ry

     iteration #  6     ecut=    20.00 Ry     beta= 0.70
     Davidson diagonalization with overlap
     ethr =  1.76E-08,  avg # of iterations =  2.0

     negative rho (up, down):  5.697E-07 0.000E+00

     total cpu time spent up to now is        1.2 secs

     total energy              =    -124.64767740 Ry
     estimated scf accuracy    <       0.00000060 Ry

     iteration #  7     ecut=    20.00 Ry     beta= 0.70
     Davidson diagonalization with overlap
     ethr =  1.36E-09,  avg # of iterations =  2.3

     negative rho (up, down):  5.673E-07 0.000E+00

     total cpu time spent up to now is        1.2 secs

     total energy              =    -124.64767758 Ry
     estimated scf accuracy    <       0.00000026 Ry

     iteration #  8     ecut=    20.00 Ry     beta= 0.70
     Davidson diagonalization with overlap
     ethr =  5.97E-10,  avg # of iterations =  2.0

     negative rho (up, down):  5.668E-07 0.000E+00

     total cpu time spent up to now is        1.3 secs

     End of self-consistent calculation

          k = 0.0833 0.1443-0.1667 (  2328 PWs)   bands (ev):

   -18.5297 -17.5887 -15.6177 -14.6965 -13.8105 -12.7321 -11.8150 -11.2077
   -10.2190  -8.6612  -7.3795  -6.4295  -6.4033  -5.7535  -5.4456  -5.2384
    -4.4011  -3.8725  -3.1435  -2.4432  -1.4832   0.0421   0.4081   1.3540
     2.0996   2.9048

          k = 0.0833-0.2406-0.1667 (  2320 PWs)   bands (ev):

   -17.9450 -17.4608 -16.6964 -15.4686 -14.2732 -12.2724 -11.0089  -9.6392
    -8.8252  -8.3340  -7.9605  -7.5421  -6.6812  -5.7378  -5.5195  -5.2000
    -4.8647  -4.3594  -3.7143  -3.1501  -1.7588  -0.5564   0.0805   0.8122
     2.3667   3.9576

          k = 0.0833-0.0481-0.1667 (  2338 PWs)   bands (ev):

   -18.7619 -16.8025 -15.9924 -15.1550 -13.8527 -12.7843 -11.9323 -11.0553
    -9.3095  -8.2858  -7.8885  -6.7421  -6.5939  -5.9665  -4.9805  -4.6430
    -4.5031  -4.3487  -3.5738  -2.7433  -1.6285  -0.2112   0.7117   1.3934
     2.2747   3.0782

     the Fermi energy is     0.0768 ev

!    total energy              =    -124.64767761 Ry
     estimated scf accuracy    <       0.00000002 Ry
     smearing contrib. (-TS)   =      -0.00160578 Ry
     internal energy E=F+TS    =    -124.64607183 Ry

     convergence has been achieved in   8 iterations
  * IN ARTn_QE::          11
 Elements:C  

     Forces acting on atoms (cartesian axes, Ry/au):

     atom    1 type  1   force =     0.00941304   -0.00000000    0.00000000
     atom    2 type  1   force =    -0.02144178    0.02043609    0.00000000
     atom    3 type  1   force =    -0.00499005   -0.00126611   -0.00000000
     atom    4 type  1   force =     0.00262052   -0.01535088   -0.00000000
     atom    5 type  1   force =    -0.00083657    0.00109172   -0.00000000
     atom    6 type  1   force =     0.01080515    0.02591836    0.00000000
     atom    7 type  1   force =    -0.02172134    0.02281267    0.00000000
     atom    8 type  1   force =     0.01481621    0.00318976    0.00000000
     atom    9 type  1   force =    -0.00242131   -0.01052022    0.00000000
     atom   10 type  1   force =    -0.00462879    0.00172769    0.00000000
     atom   11 type  1   force =     0.01838492    0.03456383   -0.00000000

     Total force =     0.070150     Total SCF correction =     0.000249

     Entering FIRE :       iteration =     3

     FIRE Parameters: P = 0.00003608, dt = 24.20, alpha = 0.196 nsteppos =   7 at step  3


ATOMIC_POSITIONS (angstrom)
C             0.0587868484        0.1409790273       -0.0000000000
C            -1.3032798437        2.1943018586        0.0000000000
C             2.4808322918        0.0021206636        0.0000000001
C             1.1981785872        2.0529836529       -0.0000000000
C             4.8924381209       -0.0227269416        0.0000000001
C             3.6785296534        2.1621983826       -0.0000000001
C            -1.2171244758        3.5883843644        0.0000000000
C             2.4280132906        1.4071916612       -0.0000000000
C             1.2020015367        3.4846873817        0.0000000000
C             4.8995844137        1.4118117525       -0.0000000000
C             3.7227236468        3.6219352519        0.0000000000



     Writing config-only to output data dir ./pwscf.save/
     NEW-OLD atomic charge density approx. for the potential

     negative rho (up, down):  5.195E-07 0.000E+00

     total cpu time spent up to now is        1.3 secs

     Self-consistent Calculation

     iteration #  1     ecut=    20.00 Ry     beta= 0.70
     Davidson diagonalization with overlap
     ethr =  1.00E-06,  avg # of iterations =  6.0

     negative rho (up, down):  5.274E-07 0.000E+00

     total cpu time spent up to now is        1.4 secs

     total energy              =    -124.64888613 Ry
     estimated scf accuracy    <       0.00490487 Ry

     iteration #  2     ecut=    20.00 Ry     beta= 0.70
     Davidson diagonalization with overlap
     ethr =  1.11E-05,  avg # of iterations =  4.7

     negative rho (up, down):  2.880E-05 0.000E+00

     total cpu time spent up to now is        1.4 secs

     total energy              =    -124.64653993 Ry
     estimated scf accuracy    <       0.04182409 Ry

     iteration #  3     ecut=    20.00 Ry     beta= 0.70
     Davidson diagonalization with overlap
     ethr =  1.11E-05,  avg # of iterations =  4.0

     negative rho (up, down):  1.822E-06 0.000E+00

     total cpu time spent up to now is        1.5 secs

     total energy              =    -124.65129837 Ry
     estimated scf accuracy    <       0.00105840 Ry

     iteration #  4     ecut=    20.00 Ry     beta= 0.70
     Davidson diagonalization with overlap
     ethr =  2.41E-06,  avg # of iterations =  2.0

     negative rho (up, down):  6.257E-07 0.000E+00

     total cpu time spent up to now is        1.5 secs

     total energy              =    -124.65153038 Ry
     estimated scf accuracy    <       0.00028970 Ry

     iteration #  5     ecut=    20.00 Ry     beta= 0.70
     Davidson diagonalization with overlap
     ethr =  6.58E-07,  avg # of iterations =  1.7

     negative rho (up, down):  5.295E-07 0.000E+00

     total cpu time spent up to now is        1.5 secs

     total energy              =    -124.65157652 Ry
     estimated scf accuracy    <       0.00002190 Ry

     iteration #  6     ecut=    20.00 Ry     beta= 0.70
     Davidson diagonalization with overlap
     ethr =  4.98E-08,  avg # of iterations =  2.0

     negative rho (up, down):  5.248E-07 0.000E+00

     total cpu time spent up to now is        1.6 secs

     total energy              =    -124.65158091 Ry
     estimated scf accuracy    <       0.00000208 Ry

     iteration #  7     ecut=    20.00 Ry     beta= 0.70
     Davidson diagonalization with overlap
     ethr =  4.74E-09,  avg # of iterations =  2.0

     negative rho (up, down):  5.251E-07 0.000E+00

     total cpu time spent up to now is        1.6 secs

     total energy              =    -124.65158144 Ry
     estimated scf accuracy    <       0.00000061 Ry

     iteration #  8     ecut=    20.00 Ry     beta= 0.70
     Davidson diagonalization with overlap
     ethr =  1.39E-09,  avg # of iterations =  2.0

     negative rho (up, down):  5.261E-07 0.000E+00

     total cpu time spent up to now is        1.6 secs

     End of self-consistent calculation

          k = 0.0833 0.1443-0.1667 (  2328 PWs)   bands (ev):

   -18.5033 -17.6426 -15.5836 -14.7395 -13.8517 -12.6863 -11.8162 -11.2392
   -10.1939  -8.6949  -7.3827  -6.4102  -6.3888  -5.7185  -5.4749  -5.3369
    -4.3380  -3.8414  -3.1431  -2.4351  -1.5321   0.0692   0.4127   1.4052
     2.1484   2.8639

          k = 0.0833-0.2406-0.1667 (  2320 PWs)   bands (ev):

   -17.9615 -17.4194 -16.7260 -15.4927 -14.2847 -12.3410 -11.0009  -9.6236
    -8.7309  -8.3696  -7.9509  -7.5298  -6.6147  -5.7499  -5.6077  -5.1737
    -4.9399  -4.3787  -3.6947  -3.1561  -1.7700  -0.5465   0.0913   0.9239
     2.3574   3.9944

          k = 0.0833-0.0481-0.1667 (  2338 PWs)   bands (ev):

   -18.7537 -16.8330 -15.9973 -15.1681 -13.8694 -12.7648 -11.9317 -11.0743
    -9.2728  -8.3324  -7.9122  -6.7345  -6.6363  -5.8797  -5.0227  -4.6519
    -4.5194  -4.2903  -3.5723  -2.7656  -1.6408  -0.1858   0.6997   1.4731
     2.2894   3.1080

     the Fermi energy is     0.0957 ev

!    total energy              =    -124.65158152 Ry
     estimated scf accuracy    <       0.00000005 Ry
     smearing contrib. (-TS)   =      -0.00161993 Ry
     internal energy E=F+TS    =    -124.64996160 Ry

     convergence has been achieved in   8 iterations
  * IN ARTn_QE::          11
 Elements:C  

     Forces acting on atoms (cartesian axes, Ry/au):

     atom    1 type  1   force =    -0.00464805    0.00000000    0.00000000
     atom    2 type  1   force =    -0.01527648    0.02167955    0.00000000
     atom    3 type  1   force =    -0.00006935    0.00476411   -0.00000000
     atom    4 type  1   force =    -0.00668456    0.00237255   -0.00000000
     atom    5 type  1   force =    -0.00148503    0.01261036   -0.00000000
     atom    6 type  1   force =     0.00240575    0.02645220    0.00000000
     atom    7 type  1   force =     0.01800660   -0.00588188    0.00000000
     atom    8 type  1   force =     0.01789064    0.00261090    0.00000000
     atom    9 type  1   force =     0.00157251   -0.02144081    0.00000000
     atom   10 type  1   force =    -0.00521250    0.00931093   -0.00000000
     atom   11 type  1   force =    -0.00649952   -0.00731520   -0.00000000

     Total force =     0.054975     Total SCF correction =     0.000430

     Entering FIRE :       iteration =     4

     FIRE Parameters: P = 0.00000409, dt = 26.62, alpha = 0.194 nsteppos =   8 at step  4


ATOMIC_POSITIONS (angstrom)
C             0.0633202147        0.1409790273       -0.0000000000
C            -1.3254388551        2.2178866843        0.0000000001
C             2.4784819792        0.0028583322        0.0000000001
C             1.1978937839        2.0417911169       -0.0000000000
C             4.8912686175       -0.0170628563        0.0000000001
C             3.6873056674        2.1907519675       -0.0000000002
C            -1.2248085796        3.6025662006        0.0000000001
C             2.4456178009        1.4111885861       -0.0000000001
C             1.2002996475        3.4693147553        0.0000000000
C             4.8940871945        1.4175341000       -0.0000000000
C             3.7326565991        3.6455156103       -0.0000000000



     Writing config-only to output data dir ./pwscf.save/
     NEW-OLD atomic charge density approx. for the potential

     negative rho (up, down):  4.275E-07 0.000E+00

     total cpu time spent up to now is        1.7 secs

     Self-consistent Calculation

     iteration #  1     ecut=    20.00 Ry     beta= 0.70
     Davidson diagonalization with overlap
     ethr =  1.00E-06,  avg # of iterations =  6.3

     negative rho (up, down):  4.353E-07 0.000E+00

     total cpu time spent up to now is        1.7 secs

     total energy              =    -124.65131654 Ry
     estimated scf accuracy    <       0.00263037 Ry

     iteration #  2     ecut=    20.00 Ry     beta= 0.70
     Davidson diagonalization with overlap
     ethr =  5.98E-06,  avg # of iterations =  4.0

     negative rho (up, down):  9.171E-06 0.000E+00

     total cpu time spent up to now is        1.8 secs

     total energy              =    -124.65003165 Ry
     estimated scf accuracy    <       0.01786664 Ry

     iteration #  3     ecut=    20.00 Ry     beta= 0.70
     Davidson diagonalization with overlap
     ethr =  5.98E-06,  avg # of iterations =  4.0

     negative rho (up, down):  1.053E-06 0.000E+00

     total cpu time spent up to now is        1.8 secs

     total energy              =    -124.65229849 Ry
     estimated scf accuracy    <       0.00131286 Ry

     iteration #  4     ecut=    20.00 Ry     beta= 0.70
     Davidson diagonalization with overlap
     ethr =  2.98E-06,  avg # of iterations =  2.0

     negative rho (up, down):  4.542E-07 0.000E+00

     total cpu time spent up to now is        1.9 secs

     total energy              =    -124.65251334 Ry
     estimated scf accuracy    <       0.00019771 Ry

     iteration #  5     ecut=    20.00 Ry     beta= 0.70
     Davidson diagonalization with overlap
     ethr =  4.49E-07,  avg # of iterations =  2.0

     negative rho (up, down):  4.325E-07 0.000E+00

     total cpu time spent up to now is        1.9 secs

     total energy              =    -124.65254956 Ry
     estimated scf accuracy    <       0.00002385 Ry

     iteration #  6     ecut=    20.00 Ry     beta= 0.70
     Davidson diagonalization with overlap
     ethr =  5.42E-08,  avg # of iterations =  2.0

     negative rho (up, down):  4.347E-07 0.000E+00

     total cpu time spent up to now is        1.9 secs

     total energy              =    -124.65255377 Ry
     estimated scf accuracy    <       0.00000125 Ry

     iteration #  7     ecut=    20.00 Ry     beta= 0.70
     Davidson diagonalization with overlap
     ethr =  2.84E-09,  avg # of iterations =  2.7

     negative rho (up, down):  4.365E-07 0.000E+00

     total cpu time spent up to now is        2.0 secs

     total energy              =    -124.65255415 Ry
     estimated scf accuracy    <       0.00000035 Ry

     iteration #  8     ecut=    20.00 Ry     beta= 0.70
     Davidson diagonalization with overlap
     ethr =  7.95E-10,  avg # of iterations =  2.7

     negative rho (up, down):  4.384E-07 0.000E+00

     total cpu time spent up to now is        2.0 secs

     End of self-consistent calculation

          k = 0.0833 0.1443-0.1667 (  2328 PWs)   bands (ev):

   -18.4953 -17.7019 -15.5589 -14.7881 -13.8703 -12.6712 -11.8399 -11.2461
   -10.2175  -8.6845  -7.3627  -6.4232  -6.4016  -5.7221  -5.5121  -5.3918
    -4.3188  -3.7767  -3.1324  -2.4645  -1.5413   0.0959   0.4254   1.4899
     2.1368   2.8845

          k = 0.0833-0.2406-0.1667 (  2320 PWs)   bands (ev):

   -18.0039 -17.3877 -16.7549 -15.5104 -14.3150 -12.3691 -11.0225  -9.6139
    -8.6642  -8.3600  -8.0009  -7.5355  -6.5974  -5.7790  -5.6677  -5.1522
    -4.9897  -4.3943  -3.6408  -3.1692  -1.7806  -0.5134   0.1023   1.0406
     2.3677   4.0187

          k = 0.0833-0.0481-0.1667 (  2338 PWs)   bands (ev):

   -18.7614 -16.8772 -16.0005 -15.1957 -13.8787 -12.7615 -11.9153 -11.0921
    -9.2885  -8.3718  -7.9513  -6.7379  -6.6407  -5.8076  -5.0770  -4.6476
    -4.5428  -4.2380  -3.5736  -2.7909  -1.6394  -0.1756   0.7245   1.5511
     2.3118   3.1244

     the Fermi energy is     0.1153 ev

!    total energy              =    -124.65255419 Ry
     estimated scf accuracy    <       0.00000009 Ry
     smearing contrib. (-TS)   =      -0.00172071 Ry
     internal energy E=F+TS    =    -124.65083348 Ry

     convergence has been achieved in   8 iterations
  * IN ARTn_QE::          11
 Elements:C  

     Forces acting on atoms (cartesian axes, Ry/au):

     atom    1 type  1   force =    -0.00763518   -0.00000000    0.00000000
     atom    2 type  1   force =    -0.00378678    0.00473465    0.00000000
     atom    3 type  1   force =     0.02216964    0.00475910   -0.00000000
     atom    4 type  1   force =    -0.00057813    0.00007879   -0.00000000
     atom    5 type  1   force =    -0.00604200    0.01099758   -0.00000000
     atom    6 type  1   force =    -0.00864540   -0.00174849    0.00000000
     atom    7 type  1   force =     0.03316149   -0.01393157    0.00000000
     atom    8 type  1   force =     0.00080351    0.00749776    0.00000000
     atom    9 type  1   force =     0.00074892    0.00016058    0.00000000
     atom   10 type  1   force =    -0.00398594    0.01812126    0.00000000
     atom   11 type  1   force =    -0.02621013   -0.01811523   -0.00000000

     Total force =     0.059627     Total SCF correction =     0.000619

     Entering FIRE :       iteration =     5

     FIRE Parameters: P = -.00001409, dt = 13.31, alpha = 0.200 nsteppos =   0 at step  5


ATOMIC_POSITIONS (angstrom)
C             0.0602682123        0.1409790273       -0.0000000000
C            -1.3147488405        2.2065812562        0.0000000000
C             2.4819374032        0.0029789966        0.0000000001
C             1.1979767217        2.0473954891       -0.0000000000
C             4.8912319164       -0.0187637387        0.0000000001
C             3.6820284344        2.1762953337       -0.0000000002
C            -1.2175556889        3.5940423451        0.0000000000
C             2.4368981907        1.4099613088       -0.0000000001
C             1.2012276222        3.4770175852        0.0000000000
C             4.8964258291        1.4165367955       -0.0000000000
C             3.7249942695        3.6318621814       -0.0000000000



     Writing config-only to output data dir ./pwscf.save/
     NEW-OLD atomic charge density approx. for the potential

     negative rho (up, down):  5.107E-07 0.000E+00

     total cpu time spent up to now is        2.0 secs

     Self-consistent Calculation

     iteration #  1     ecut=    20.00 Ry     beta= 0.70
     Davidson diagonalization with overlap
     ethr =  1.00E-06,  avg # of iterations =  5.0

     negative rho (up, down):  4.941E-07 0.000E+00

     total cpu time spent up to now is        2.1 secs

     total energy              =    -124.65250935 Ry
     estimated scf accuracy    <       0.00121927 Ry

     iteration #  2     ecut=    20.00 Ry     beta= 0.70
     Davidson diagonalization with overlap
     ethr =  2.77E-06,  avg # of iterations =  4.3

     negative rho (up, down):  4.729E-06 0.000E+00

     total cpu time spent up to now is        2.1 secs

     total energy              =    -124.65173696 Ry
     estimated scf accuracy    <       0.01171575 Ry

     iteration #  3     ecut=    20.00 Ry     beta= 0.70
     Davidson diagonalization with overlap
     ethr =  2.77E-06,  avg # of iterations =  4.0

     negative rho (up, down):  7.016E-07 0.000E+00

     total cpu time spent up to now is        2.2 secs

     total energy              =    -124.65308438 Ry
     estimated scf accuracy    <       0.00036029 Ry

     iteration #  4     ecut=    20.00 Ry     beta= 0.70
     Davidson diagonalization with overlap
     ethr =  8.19E-07,  avg # of iterations =  2.0

     negative rho (up, down):  5.287E-07 0.000E+00

     total cpu time spent up to now is        2.2 secs

     total energy              =    -124.65315521 Ry
     estimated scf accuracy    <       0.00005940 Ry

     iteration #  5     ecut=    20.00 Ry     beta= 0.70
     Davidson diagonalization with overlap
     ethr =  1.35E-07,  avg # of iterations =  2.0

     negative rho (up, down):  4.964E-07 0.000E+00

     total cpu time spent up to now is        2.3 secs

     total energy              =    -124.65316576 Ry
     estimated scf accuracy    <       0.00000635 Ry

     iteration #  6     ecut=    20.00 Ry     beta= 0.70
     Davidson diagonalization with overlap
     ethr =  1.44E-08,  avg # of iterations =  2.0

     negative rho (up, down):  4.921E-07 0.000E+00

     total cpu time spent up to now is        2.3 secs

     total energy              =    -124.65316681 Ry
     estimated scf accuracy    <       0.00000036 Ry

     iteration #  7     ecut=    20.00 Ry     beta= 0.70
     Davidson diagonalization with overlap
     ethr =  8.21E-10,  avg # of iterations =  2.7

     negative rho (up, down):  4.893E-07 0.000E+00

     total cpu time spent up to now is        2.3 secs

     End of self-consistent calculation

          k = 0.0833 0.1443-0.1667 (  2328 PWs)   bands (ev):

   -18.5015 -17.6683 -15.5752 -14.7597 -13.8590 -12.6848 -11.8289 -11.2404
   -10.2093  -8.6839  -7.3716  -6.4082  -6.4080  -5.7279  -5.4915  -5.3579
    -4.3381  -3.8129  -3.1384  -2.4516  -1.5331   0.0805   0.4207   1.4480
     2.1384   2.8787

          k = 0.0833-0.2406-0.1667 (  2320 PWs)   bands (ev):

   -17.9799 -17.4082 -16.7404 -15.4993 -14.3013 -12.3456 -11.0154  -9.6208
    -8.7027  -8.3630  -7.9818  -7.5374  -6.6115  -5.7634  -5.6344  -5.1658
    -4.9621  -4.3865  -3.6640  -3.1620  -1.7759  -0.5326   0.0974   0.9795
     2.3633   4.0048

          k = 0.0833-0.0481-0.1667 (  2338 PWs)   bands (ev):

   -18.7581 -16.8531 -15.9977 -15.1832 -13.8761 -12.7620 -11.9240 -11.0832
    -9.2860  -8.3457  -7.9325  -6.7373  -6.6366  -5.8554  -5.0397  -4.6506
    -4.5300  -4.2763  -3.5730  -2.7774  -1.6418  -0.1818   0.7128   1.5110
     2.3017   3.1140

     the Fermi energy is     0.1048 ev

!    total energy              =    -124.65316687 Ry
     estimated scf accuracy    <       0.00000010 Ry
     smearing contrib. (-TS)   =      -0.00167242 Ry
     internal energy E=F+TS    =    -124.65149445 Ry

     convergence has been achieved in   7 iterations
  * IN ARTn_QE::          11
 Elements:C  

     Forces acting on atoms (cartesian axes, Ry/au):

     atom    1 type  1   force =     0.00000000    0.68358318    0.00000000
     atom    2 type  1   force =     0.00000000    0.00000000    0.00000000
     atom    3 type  1   force =     0.00000000    0.00000000    0.00000000
     atom    4 type  1   force =     0.00000000    0.00000000    0.00000000
     atom    5 type  1   force =     0.00000000    0.00000000    0.00000000
     atom    6 type  1   force =     0.00000000    0.00000000    0.00000000
     atom    7 type  1   force =     0.00000000    0.00000000    0.00000000
     atom    8 type  1   force =     0.00000000    0.00000000    0.00000000
     atom    9 type  1   force =     0.00000000    0.00000000    0.00000000
     atom   10 type  1   force =     0.00000000    0.00000000    0.00000000
     atom   11 type  1   force =     0.00000000    0.00000000    0.00000000

     Total force =     0.683583     Total SCF correction =     0.000634

     Entering FIRE :       iteration =     6

     FIRE Parameters: P = 0.00000000, dt = 20.00, alpha = 0.000 nsteppos =   1 at step  6


ATOMIC_POSITIONS (angstrom)
C             0.0602682123        0.2997321905       -0.0000000000
C            -1.3147488405        2.2065812562        0.0000000000
C             2.4819374032        0.0029789966        0.0000000001
C             1.1979767217        2.0473954891       -0.0000000000
C             4.8912319164       -0.0187637387        0.0000000001
C             3.6820284344        2.1762953337       -0.0000000002
C            -1.2175556889        3.5940423451        0.0000000000
C             2.4368981907        1.4099613088       -0.0000000001
C             1.2012276222        3.4770175852        0.0000000000
C             4.8964258291        1.4165367955       -0.0000000000
C             3.7249942695        3.6318621814       -0.0000000000



     Writing config-only to output data dir ./pwscf.save/
     NEW-OLD atomic charge density approx. for the potential

     negative rho (up, down):  6.705E-07 0.000E+00

     total cpu time spent up to now is        2.4 secs

     Self-consistent Calculation

     iteration #  1     ecut=    20.00 Ry     beta= 0.70
     Davidson diagonalization with overlap
     ethr =  1.00E-06,  avg # of iterations =  8.3

     negative rho (up, down):  4.918E-07 0.000E+00

     total cpu time spent up to now is        2.4 secs

     total energy              =    -124.62653443 Ry
     estimated scf accuracy    <       0.01209522 Ry

     iteration #  2     ecut=    20.00 Ry     beta= 0.70
     Davidson diagonalization with overlap
     ethr =  2.75E-05,  avg # of iterations =  2.7

     negative rho (up, down):  4.512E-06 0.000E+00

     total cpu time spent up to now is        2.5 secs

     total energy              =    -124.62657669 Ry
     estimated scf accuracy    <       0.01506013 Ry

     iteration #  3     ecut=    20.00 Ry     beta= 0.70
     Davidson diagonalization with overlap
     ethr =  2.75E-05,  avg # of iterations =  2.0

     negative rho (up, down):  2.617E-06 0.000E+00

     total cpu time spent up to now is        2.5 secs

     total energy              =    -124.62854196 Ry
     estimated scf accuracy    <       0.01158395 Ry

     iteration #  4     ecut=    20.00 Ry     beta= 0.70
     Davidson diagonalization with overlap
     ethr =  2.63E-05,  avg # of iterations =  1.3

     negative rho (up, down):  6.414E-07 0.000E+00

     total cpu time spent up to now is        2.5 secs

     total energy              =    -124.63019001 Ry
     estimated scf accuracy    <       0.00183871 Ry

     iteration #  5     ecut=    20.00 Ry     beta= 0.70
     Davidson diagonalization with overlap
     ethr =  4.18E-06,  avg # of iterations =  2.0

     negative rho (up, down):  5.078E-07 0.000E+00

     total cpu time spent up to now is        2.6 secs

     total energy              =    -124.63044726 Ry
     estimated scf accuracy    <       0.00011316 Ry

     iteration #  6     ecut=    20.00 Ry     beta= 0.70
     Davidson diagonalization with overlap
     ethr =  2.57E-07,  avg # of iterations =  2.0

     negative rho (up, down):  4.935E-07 0.000E+00

     total cpu time spent up to now is        2.6 secs

     total energy              =    -124.63047640 Ry
     estimated scf accuracy    <       0.00000507 Ry

     iteration #  7     ecut=    20.00 Ry     beta= 0.70
     Davidson diagonalization with overlap
     ethr =  1.15E-08,  avg # of iterations =  3.7

     negative rho (up, down):  4.925E-07 0.000E+00

     total cpu time spent up to now is        2.7 secs

     total energy              =    -124.63047758 Ry
     estimated scf accuracy    <       0.00000326 Ry

     iteration #  8     ecut=    20.00 Ry     beta= 0.70
     Davidson diagonalization with overlap
     ethr =  7.42E-09,  avg # of iterations =  2.7

     negative rho (up, down):  4.915E-07 0.000E+00

     total cpu time spent up to now is        2.7 secs

     total energy              =    -124.63047814 Ry
     estimated scf accuracy    <       0.00000022 Ry

     iteration #  9     ecut=    20.00 Ry     beta= 0.70
     Davidson diagonalization with overlap
     ethr =  4.89E-10,  avg # of iterations =  2.3

     negative rho (up, down):  4.926E-07 0.000E+00

     total cpu time spent up to now is        2.7 secs

     End of self-consistent calculation

          k = 0.0833 0.1443-0.1667 (  2328 PWs)   bands (ev):

   -18.4696 -17.5055 -15.5703 -14.5602 -13.7650 -12.6793 -11.6865 -11.1503
   -10.2341  -8.5412  -7.5110  -6.3802  -6.3481  -5.6888  -5.3920  -4.9540
    -4.3851  -4.0145  -3.0866  -2.3815  -1.4202   0.0199   0.4346   1.6420
     2.0275   2.8508

          k = 0.0833-0.2406-0.1667 (  2320 PWs)   bands (ev):

   -17.8719 -17.3792 -16.6439 -15.3878 -14.2164 -12.1917 -10.9562  -9.5766
    -8.7447  -8.2586  -7.9222  -7.4798  -6.6080  -5.6736  -5.4019  -5.1414
    -4.6440  -4.3169  -4.1276  -3.1117  -1.7139  -0.6068   0.0258   1.1472
     2.3788   3.8295

          k = 0.0833-0.0481-0.1667 (  2338 PWs)   bands (ev):

   -18.6998 -16.7145 -15.9450 -15.0242 -13.8062 -12.7071 -11.8998 -11.0190
    -9.2707  -8.1693  -7.8630  -6.6941  -6.2938  -5.8909  -5.2317  -4.7119
    -4.4407  -4.2953  -3.5354  -2.6595  -1.5295  -0.3227   0.7032   1.7751
     2.2558   2.9654

     the Fermi energy is     0.0412 ev

!    total energy              =    -124.63047816 Ry
     estimated scf accuracy    <       0.00000005 Ry
     smearing contrib. (-TS)   =      -0.00208173 Ry
     internal energy E=F+TS    =    -124.62839642 Ry

     convergence has been achieved in   9 iterations
  * IN ARTn_QE::          11
 Elements:C  

     Forces acting on atoms (cartesian axes, Ry/au):

     atom    1 type  1   force =     0.01468686    0.00000000    0.00000000
     atom    2 type  1   force =    -0.02684684    0.02039084    0.00000000
     atom    3 type  1   force =     0.00226945    0.00036182   -0.00000000
     atom    4 type  1   force =     0.00156722   -0.03669409   -0.00000000
     atom    5 type  1   force =    -0.00321629    0.00656216   -0.00000000
     atom    6 type  1   force =     0.01134376    0.02427608    0.00000000
     atom    7 type  1   force =    -0.01585144    0.03370885    0.00000000
     atom    8 type  1   force =     0.02170688    0.01252528    0.00000000
     atom    9 type  1   force =    -0.00175009   -0.00916272    0.00000000
     atom   10 type  1   force =    -0.01214425    0.00673626    0.00000000
     atom   11 type  1   force =     0.00823473    0.05232508   -0.00000000

     Total force =     0.092623     Total SCF correction =     0.000482

     Entering FIRE :       iteration =     7

     FIRE Parameters: P = 0.00000000, dt = 22.00, alpha = 0.198 nsteppos =   6 at step  7


ATOMIC_POSITIONS (angstrom)
C             0.0643953171        0.2997321905       -0.0000000000
C            -1.3222929760        2.2123112137        0.0000000000
C             2.4825751326        0.0030806702        0.0000000000
C             1.1984171215        2.0370842095       -0.0000000000
C             4.8903281189       -0.0169197289        0.0000000001
C             3.6852161051        2.1831170698       -0.0000000001
C            -1.2220100455        3.6035147505        0.0000000000
C             2.4429979649        1.4134809949       -0.0000000001
C             1.2007358350        3.4744428007        0.0000000000
C             4.8930132155        1.4184297290       -0.0000000000
C             3.7273082810        3.6465658701       -0.0000000000



     Writing config-only to output data dir ./pwscf.save/
     NEW-OLD atomic charge density approx. for the potential

     negative rho (up, down):  4.584E-07 0.000E+00

     total cpu time spent up to now is        2.8 secs

     Self-consistent Calculation

     iteration #  1     ecut=    20.00 Ry     beta= 0.70
     Davidson diagonalization with overlap
     ethr =  1.00E-06,  avg # of iterations =  4.7

     negative rho (up, down):  4.636E-07 0.000E+00

     total cpu time spent up to now is        2.8 secs

     total energy              =    -124.63429792 Ry
     estimated scf accuracy    <       0.00050586 Ry

     iteration #  2     ecut=    20.00 Ry     beta= 0.70
     Davidson diagonalization with overlap
     ethr =  1.15E-06,  avg # of iterations =  3.0

     negative rho (up, down):  1.087E-06 0.000E+00

     total cpu time spent up to now is        2.9 secs

     total energy              =    -124.63410308 Ry
     estimated scf accuracy    <       0.00268324 Ry

     iteration #  3     ecut=    20.00 Ry     beta= 0.70
     Davidson diagonalization with overlap
     ethr =  1.15E-06,  avg # of iterations =  2.3

     negative rho (up, down):  5.749E-07 0.000E+00

     total cpu time spent up to now is        2.9 secs

     total energy              =    -124.63445353 Ry
     estimated scf accuracy    <       0.00036170 Ry

     iteration #  4     ecut=    20.00 Ry     beta= 0.70
     Davidson diagonalization with overlap
     ethr =  8.22E-07,  avg # of iterations =  2.0

     negative rho (up, down):  4.630E-07 0.000E+00

     total cpu time spent up to now is        2.9 secs

     total energy              =    -124.63451199 Ry
     estimated scf accuracy    <       0.00003637 Ry

     iteration #  5     ecut=    20.00 Ry     beta= 0.70
     Davidson diagonalization with overlap
     ethr =  8.26E-08,  avg # of iterations =  2.0

     negative rho (up, down):  4.627E-07 0.000E+00

     total cpu time spent up to now is        3.0 secs

     total energy              =    -124.63451859 Ry
     estimated scf accuracy    <       0.00000318 Ry

     iteration #  6     ecut=    20.00 Ry     beta= 0.70
     Davidson diagonalization with overlap
     ethr =  7.23E-09,  avg # of iterations =  2.0

     negative rho (up, down):  4.648E-07 0.000E+00

     total cpu time spent up to now is        3.0 secs

     total energy              =    -124.63451918 Ry
     estimated scf accuracy    <       0.00000022 Ry

     iteration #  7     ecut=    20.00 Ry     beta= 0.70
     Davidson diagonalization with overlap
     ethr =  5.09E-10,  avg # of iterations =  3.3

     negative rho (up, down):  4.652E-07 0.000E+00

     total cpu time spent up to now is        3.0 secs

     total energy              =    -124.63451924 Ry
     estimated scf accuracy    <       0.00000012 Ry

     iteration #  8     ecut=    20.00 Ry     beta= 0.70
     Davidson diagonalization with overlap
     ethr =  2.76E-10,  avg # of iterations =  2.3

     negative rho (up, down):  4.658E-07 0.000E+00

     total cpu time spent up to now is        3.1 secs

     End of self-consistent calculation

          k = 0.0833 0.1443-0.1667 (  2328 PWs)   bands (ev):

   -18.4595 -17.5215 -15.5587 -14.5631 -13.7843 -12.6629 -11.6765 -11.1684
   -10.2217  -8.5497  -7.5087  -6.3717  -6.3324  -5.6698  -5.3992  -4.9996
    -4.3450  -4.0367  -3.0879  -2.3699  -1.4388   0.0300   0.4227   1.6973
     2.0483   2.8253

          k = 0.0833-0.2406-0.1667 (  2320 PWs)   bands (ev):

   -17.8769 -17.3575 -16.6594 -15.3864 -14.2231 -12.2122 -10.9605  -9.5671
    -8.6934  -8.2585  -7.9313  -7.4726  -6.5743  -5.6770  -5.4187  -5.1269
    -4.6753  -4.3275  -4.1641  -3.1037  -1.7186  -0.6082   0.0331   1.2267
     2.3661   3.8417

          k = 0.0833-0.0481-0.1667 (  2338 PWs)   bands (ev):

   -18.6958 -16.7198 -15.9443 -15.0318 -13.8093 -12.6944 -11.8920 -11.0306
    -9.2579  -8.1746  -7.8769  -6.6899  -6.3030  -5.8439  -5.2320  -4.7462
    -4.4402  -4.2829  -3.5336  -2.6677  -1.5339  -0.3142   0.6782   1.8425
     2.2685   2.9735

     the Fermi energy is     0.0500 ev

!    total energy              =    -124.63451926 Ry
     estimated scf accuracy    <          6.1E-09 Ry
     smearing contrib. (-TS)   =      -0.00208411 Ry
     internal energy E=F+TS    =    -124.63243515 Ry

     convergence has been achieved in   8 iterations
  * IN ARTn_QE::          11
 Elements:C  

     Forces acting on atoms (cartesian axes, Ry/au):

     atom    1 type  1   force =     0.01182670    0.00000000    0.00000000
     atom    2 type  1   force =    -0.02290906    0.02417396    0.00000000
     atom    3 type  1   force =     0.00642487    0.00220604   -0.00000000
     atom    4 type  1   force =    -0.00306062   -0.02414654   -0.00000000
     atom    5 type  1   force =    -0.00598725    0.00802506   -0.00000000
     atom    6 type  1   force =     0.00619755    0.02858741    0.00000000
     atom    7 type  1   force =    -0.00972705    0.02153780    0.00000000
     atom    8 type  1   force =     0.01900047    0.00723775    0.00000000
     atom    9 type  1   force =    -0.00127577   -0.01389042   -0.00000000
     atom   10 type  1   force =    -0.00885744    0.00981168    0.00000000
     atom   11 type  1   force =     0.00836761    0.03545834   -0.00000000

     Total force =     0.074243     Total SCF correction =     0.000134

     Entering FIRE :       iteration =     8

     FIRE Parameters: P = 0.00003455, dt = 24.20, alpha = 0.196 nsteppos =   7 at step  8


ATOMIC_POSITIONS (angstrom)
C             0.0729451386        0.2997321905       -0.0000000000
C            -1.3384562602        2.2273941378        0.0000000001
C             2.4858010059        0.0040845675        0.0000000000
C             1.1975385611        2.0179610225       -0.0000000000
C             4.8870482508       -0.0119640772        0.0000000000
C             3.6906029069        2.2009940708       -0.0000000001
C            -1.2299793814        3.6208152292        0.0000000000
C             2.4562645265        1.4195923874       -0.0000000001
C             1.1997723477        3.4664107979        0.0000000000
C             4.8863254606        1.4241688616       -0.0000000000
C             3.7328215134        3.6742601807       -0.0000000000



     Writing config-only to output data dir ./pwscf.save/
     NEW-OLD atomic charge density approx. for the potential

     negative rho (up, down):  3.946E-07 0.000E+00

     total cpu time spent up to now is        3.1 secs

     Self-consistent Calculation

     iteration #  1     ecut=    20.00 Ry     beta= 0.70
     Davidson diagonalization with overlap
     ethr =  1.00E-06,  avg # of iterations =  6.0

     negative rho (up, down):  4.046E-07 0.000E+00

     total cpu time spent up to now is        3.2 secs

     total energy              =    -124.63941272 Ry
     estimated scf accuracy    <       0.00186803 Ry

     iteration #  2     ecut=    20.00 Ry     beta= 0.70
     Davidson diagonalization with overlap
     ethr =  4.25E-06,  avg # of iterations =  3.7

     negative rho (up, down):  4.669E-06 0.000E+00

     total cpu time spent up to now is        3.2 secs

     total energy              =    -124.63867485 Ry
     estimated scf accuracy    <       0.01028246 Ry

     iteration #  3     ecut=    20.00 Ry     beta= 0.70
     Davidson diagonalization with overlap
     ethr =  4.25E-06,  avg # of iterations =  3.0

     negative rho (up, down):  8.587E-07 0.000E+00

     total cpu time spent up to now is        3.3 secs

     total energy              =    -124.64002426 Ry
     estimated scf accuracy    <       0.00112073 Ry

     iteration #  4     ecut=    20.00 Ry     beta= 0.70
     Davidson diagonalization with overlap
     ethr =  2.55E-06,  avg # of iterations =  2.0

     negative rho (up, down):  4.166E-07 0.000E+00

     total cpu time spent up to now is        3.3 secs

     total energy              =    -124.64021309 Ry
     estimated scf accuracy    <       0.00014154 Ry

     iteration #  5     ecut=    20.00 Ry     beta= 0.70
     Davidson diagonalization with overlap
     ethr =  3.22E-07,  avg # of iterations =  2.0

     negative rho (up, down):  3.974E-07 0.000E+00

     total cpu time spent up to now is        3.3 secs

     total energy              =    -124.64023746 Ry
     estimated scf accuracy    <       0.00001010 Ry

     iteration #  6     ecut=    20.00 Ry     beta= 0.70
     Davidson diagonalization with overlap
     ethr =  2.30E-08,  avg # of iterations =  2.0

     negative rho (up, down):  4.009E-07 0.000E+00

     total cpu time spent up to now is        3.4 secs

     total energy              =    -124.64023944 Ry
     estimated scf accuracy    <       0.00000081 Ry

     iteration #  7     ecut=    20.00 Ry     beta= 0.70
     Davidson diagonalization with overlap
     ethr =  1.83E-09,  avg # of iterations =  2.3

     negative rho (up, down):  4.024E-07 0.000E+00

     total cpu time spent up to now is        3.4 secs

     total energy              =    -124.64023966 Ry
     estimated scf accuracy    <       0.00000031 Ry

     iteration #  8     ecut=    20.00 Ry     beta= 0.70
     Davidson diagonalization with overlap
     ethr =  7.09E-10,  avg # of iterations =  2.0

     negative rho (up, down):  4.034E-07 0.000E+00

     total cpu time spent up to now is        3.4 secs

     End of self-consistent calculation

          k = 0.0833 0.1443-0.1667 (  2328 PWs)   bands (ev):

   -18.4420 -17.5574 -15.5362 -14.5748 -13.8173 -12.6347 -11.6715 -11.1915
   -10.2083  -8.5546  -7.5007  -6.3565  -6.3189  -5.6390  -5.4166  -5.0742
    -4.2835  -4.0497  -3.0863  -2.3579  -1.4693   0.0530   0.4039   1.8175
     2.0771   2.7906

          k = 0.0833-0.2406-0.1667 (  2320 PWs)   bands (ev):

   -17.8925 -17.3174 -16.6890 -15.3835 -14.2435 -12.2472 -10.9713  -9.5544
    -8.6030  -8.2553  -7.9491  -7.4547  -6.5160  -5.6875  -5.4595  -5.0993
    -4.7285  -4.3455  -4.2104  -3.0925  -1.7307  -0.6016   0.0481   1.3879
     2.3529   3.8606

          k = 0.0833-0.0481-0.1667 (  2338 PWs)   bands (ev):

   -18.6912 -16.7350 -15.9413 -15.0544 -13.8127 -12.6748 -11.8778 -11.0450
    -9.2464  -8.1878  -7.8998  -6.6838  -6.3256  -5.7556  -5.2225  -4.8156
    -4.4417  -4.2425  -3.5288  -2.6894  -1.5367  -0.2995   0.6441   1.9766
     2.2868   2.9971

     the Fermi energy is     0.0691 ev

!    total energy              =    -124.64023971 Ry
     estimated scf accuracy    <       0.00000002 Ry
     smearing contrib. (-TS)   =      -0.00209432 Ry
     internal energy E=F+TS    =    -124.63814539 Ry

     convergence has been achieved in   8 iterations
  * IN ARTn_QE::          11
 Elements:C  

     Forces acting on atoms (cartesian axes, Ry/au):

     atom    1 type  1   force =     0.00582865    0.00000000    0.00000000
     atom    2 type  1   force =    -0.01470953    0.02563296    0.00000000
     atom    3 type  1   force =     0.01141054    0.00326153   -0.00000000
     atom    4 type  1   force =    -0.00757948   -0.00693024   -0.00000000
     atom    5 type  1   force =    -0.00669436    0.00972037   -0.00000000
     atom    6 type  1   force =    -0.00199917    0.02870534    0.00000000
     atom    7 type  1   force =     0.00536916    0.00348317   -0.00000000
     atom    8 type  1   force =     0.00925018    0.00152593    0.00000000
     atom    9 type  1   force =    -0.00045021   -0.01549251   -0.00000000
     atom   10 type  1   force =    -0.00430209    0.01470910    0.00000000
     atom   11 type  1   force =     0.00387631    0.00935065   -0.00000000

     Total force =     0.053173     Total SCF correction =     0.000225

     Entering FIRE :       iteration =     9

     FIRE Parameters: P = 0.00003533, dt = 26.62, alpha = 0.194 nsteppos =   8 at step  9


ATOMIC_POSITIONS (angstrom)
C             0.0840790300        0.2997321905        0.0000000000
C            -1.3617551134        2.2563960843        0.0000000001
C             2.4956187520        0.0069633668        0.0000000000
C             1.1921378846        1.9967817548       -0.0000000000
C             4.8800584635       -0.0016434543        0.0000000000
C             3.6941594398        2.2343465321       -0.0000000001
C            -1.2337704767        3.6382766575        0.0000000000
C             2.4736663447        1.4259408254       -0.0000000000
C             1.1986436574        3.4498431629        0.0000000000
C             4.8777732182        1.4382260866       -0.0000000000
C             3.7400728699        3.7045139549       -0.0000000000



     Writing config-only to output data dir ./pwscf.save/
     NEW-OLD atomic charge density approx. for the potential

     negative rho (up, down):  3.263E-07 0.000E+00

     total cpu time spent up to now is        3.5 secs

     Self-consistent Calculation

     iteration #  1     ecut=    20.00 Ry     beta= 0.70
     Davidson diagonalization with overlap
     ethr =  1.00E-06,  avg # of iterations =  6.7

     negative rho (up, down):  3.372E-07 0.000E+00

     total cpu time spent up to now is        3.5 secs

     total energy              =    -124.64338110 Ry
     estimated scf accuracy    <       0.00264864 Ry

     iteration #  2     ecut=    20.00 Ry     beta= 0.70
     Davidson diagonalization with overlap
     ethr =  6.02E-06,  avg # of iterations =  3.3

     negative rho (up, down):  5.430E-06 0.000E+00

     total cpu time spent up to now is        3.6 secs

     total energy              =    -124.64247473 Ry
     estimated scf accuracy    <       0.01113740 Ry

     iteration #  3     ecut=    20.00 Ry     beta= 0.70
     Davidson diagonalization with overlap
     ethr =  6.02E-06,  avg # of iterations =  2.7

     negative rho (up, down):  1.002E-06 0.000E+00

     total cpu time spent up to now is        3.6 secs

     total energy              =    -124.64407298 Ry
     estimated scf accuracy    <       0.00183454 Ry

     iteration #  4     ecut=    20.00 Ry     beta= 0.70
     Davidson diagonalization with overlap
     ethr =  4.17E-06,  avg # of iterations =  2.0

     negative rho (up, down):  3.719E-07 0.000E+00

     total cpu time spent up to now is        3.7 secs

     total energy              =    -124.64435090 Ry
     estimated scf accuracy    <       0.00028620 Ry

     iteration #  5     ecut=    20.00 Ry     beta= 0.70
     Davidson diagonalization with overlap
     ethr =  6.50E-07,  avg # of iterations =  2.0

     negative rho (up, down):  3.318E-07 0.000E+00

     total cpu time spent up to now is        3.7 secs

     total energy              =    -124.64439977 Ry
     estimated scf accuracy    <       0.00002297 Ry

     iteration #  6     ecut=    20.00 Ry     beta= 0.70
     Davidson diagonalization with overlap
     ethr =  5.22E-08,  avg # of iterations =  2.0

     negative rho (up, down):  3.336E-07 0.000E+00

     total cpu time spent up to now is        3.7 secs

     total energy              =    -124.64440497 Ry
     estimated scf accuracy    <       0.00000141 Ry

     iteration #  7     ecut=    20.00 Ry     beta= 0.70
     Davidson diagonalization with overlap
     ethr =  3.21E-09,  avg # of iterations =  3.3

     negative rho (up, down):  3.332E-07 0.000E+00

     total cpu time spent up to now is        3.8 secs

     total energy              =    -124.64440540 Ry
     estimated scf accuracy    <       0.00000050 Ry

     iteration #  8     ecut=    20.00 Ry     beta= 0.70
     Davidson diagonalization with overlap
     ethr =  1.13E-09,  avg # of iterations =  2.3

     negative rho (up, down):  3.354E-07 0.000E+00

     total cpu time spent up to now is        3.8 secs

     End of self-consistent calculation

          k = 0.0833 0.1443-0.1667 (  2328 PWs)   bands (ev):

   -18.4262 -17.6091 -15.5056 -14.6024 -13.8431 -12.6107 -11.6884 -11.2042
   -10.2281  -8.5290  -7.4804  -6.3454  -6.3405  -5.6096  -5.4456  -5.1241
    -4.2657  -4.0062  -3.0683  -2.3747  -1.4874   0.0853   0.4095   1.9837
     2.0769   2.7898

          k = 0.0833-0.2406-0.1667 (  2320 PWs)   bands (ev):

   -17.9244 -17.2719 -16.7206 -15.3807 -14.2823 -12.2700 -10.9920  -9.5568
    -8.5276  -8.2253  -7.9840  -7.4384  -6.4819  -5.7093  -5.5019  -5.0651
    -4.7653  -4.3608  -4.2240  -3.0905  -1.7513  -0.5660   0.0670   1.5990
     2.3650   3.8714

          k = 0.0833-0.0481-0.1667 (  2338 PWs)   bands (ev):

   -18.6924 -16.7622 -15.9350 -15.0891 -13.8145 -12.6584 -11.8702 -11.0478
    -9.2688  -8.2128  -7.9108  -6.6809  -6.3455  -5.6680  -5.1976  -4.8878
    -4.4496  -4.1888  -3.5219  -2.7175  -1.5331  -0.2912   0.6507   2.1431
     2.3032   3.0296

     the Fermi energy is     0.0947 ev

!    total energy              =    -124.64440546 Ry
     estimated scf accuracy    <       0.00000005 Ry
     smearing contrib. (-TS)   =      -0.00210840 Ry
     internal energy E=F+TS    =    -124.64229706 Ry

     convergence has been achieved in   8 iterations
  * IN ARTn_QE::          11
 Elements:C  

     Forces acting on atoms (cartesian axes, Ry/au):

     atom    1 type  1   force =     0.00089399    0.00000000   -0.00000000
     atom    2 type  1   force =    -0.00291288    0.01042168    0.00000000
     atom    3 type  1   force =     0.01089067    0.00096582    0.00000000
     atom    4 type  1   force =    -0.00409904   -0.00065024   -0.00000000
     atom    5 type  1   force =     0.00067013    0.00891090   -0.00000000
     atom    6 type  1   force =    -0.00766875    0.00816559    0.00000000
     atom    7 type  1   force =     0.02180761   -0.00230770   -0.00000000
     atom    8 type  1   force =    -0.00831139    0.00285567    0.00000000
     atom    9 type  1   force =     0.00272018   -0.00117945   -0.00000000
     atom   10 type  1   force =    -0.00303293    0.01641249    0.00000000
     atom   11 type  1   force =    -0.01095760   -0.00049748    0.00000000

     Total force =     0.037760     Total SCF correction =     0.000420

     Entering FIRE :       iteration =    10

     FIRE Parameters: P = 0.00001207, dt = 29.28, alpha = 0.192 nsteppos =   9 at step 10


ATOMIC_POSITIONS (angstrom)
C             0.0947379147        0.2997321905        0.0000000000
C            -1.3849511813        2.2910818656        0.0000000001
C             2.5136572078        0.0103476351       -0.0000000000
C             1.1838329614        1.9774043076       -0.0000000000
C             4.8744199583        0.0151487901       -0.0000000000
C             3.6907616839        2.2709690615       -0.0000000000
C            -1.2184895715        3.6518205324        0.0000000000
C             2.4820228704        1.4340246600       -0.0000000000
C             1.1999669330        3.4341113513        0.0000000000
C             4.8675793395        1.4647543162       -0.0000000000
C             3.7371459538        3.7309740959       -0.0000000000



     Writing config-only to output data dir ./pwscf.save/
     NEW-OLD atomic charge density approx. for the potential

     negative rho (up, down):  3.065E-07 0.000E+00

     total cpu time spent up to now is        3.8 secs

     Self-consistent Calculation

     iteration #  1     ecut=    20.00 Ry     beta= 0.70
     Davidson diagonalization with overlap
     ethr =  1.00E-06,  avg # of iterations =  7.0

     negative rho (up, down):  3.045E-07 0.000E+00

     total cpu time spent up to now is        3.9 secs

     total energy              =    -124.64465147 Ry
     estimated scf accuracy    <       0.00235035 Ry

     iteration #  2     ecut=    20.00 Ry     beta= 0.70
     Davidson diagonalization with overlap
     ethr =  5.34E-06,  avg # of iterations =  3.0

     negative rho (up, down):  1.521E-06 0.000E+00

     total cpu time spent up to now is        4.0 secs

     total energy              =    -124.64446095 Ry
     estimated scf accuracy    <       0.00349289 Ry

     iteration #  3     ecut=    20.00 Ry     beta= 0.70
     Davidson diagonalization with overlap
     ethr =  5.34E-06,  avg # of iterations =  2.3

     negative rho (up, down):  9.190E-07 0.000E+00

     total cpu time spent up to now is        4.0 secs

     total energy              =    -124.64496328 Ry
     estimated scf accuracy    <       0.00181268 Ry

     iteration #  4     ecut=    20.00 Ry     beta= 0.70
     Davidson diagonalization with overlap
     ethr =  4.12E-06,  avg # of iterations =  2.0

     negative rho (up, down):  3.936E-07 0.000E+00

     total cpu time spent up to now is        4.0 secs

     total energy              =    -124.64522854 Ry
     estimated scf accuracy    <       0.00058960 Ry

     iteration #  5     ecut=    20.00 Ry     beta= 0.70
     Davidson diagonalization with overlap
     ethr =  1.34E-06,  avg # of iterations =  1.7

     negative rho (up, down):  3.122E-07 0.000E+00

     total cpu time spent up to now is        4.1 secs

     total energy              =    -124.64530617 Ry
     estimated scf accuracy    <       0.00003129 Ry

     iteration #  6     ecut=    20.00 Ry     beta= 0.70
     Davidson diagonalization with overlap
     ethr =  7.11E-08,  avg # of iterations =  2.0

     negative rho (up, down):  3.040E-07 0.000E+00

     total cpu time spent up to now is        4.1 secs

     total energy              =    -124.64531492 Ry
     estimated scf accuracy    <       0.00000110 Ry

     iteration #  7     ecut=    20.00 Ry     beta= 0.70
     Davidson diagonalization with overlap
     ethr =  2.51E-09,  avg # of iterations =  4.0

     negative rho (up, down):  2.984E-07 0.000E+00

     total cpu time spent up to now is        4.1 secs

     total energy              =    -124.64531534 Ry
     estimated scf accuracy    <       0.00000072 Ry

     iteration #  8     ecut=    20.00 Ry     beta= 0.70
     Davidson diagonalization with overlap
     ethr =  1.63E-09,  avg # of iterations =  2.0

     negative rho (up, down):  2.997E-07 0.000E+00

     total cpu time spent up to now is        4.2 secs

     End of self-consistent calculation

          k = 0.0833 0.1443-0.1667 (  2328 PWs)   bands (ev):

   -18.4238 -17.6555 -15.4870 -14.6329 -13.8584 -12.6005 -11.7098 -11.2025
   -10.2677  -8.4958  -7.4537  -6.3943  -6.3351  -5.5753  -5.4759  -5.1614
    -4.2919  -3.9538  -3.0496  -2.4068  -1.4827   0.1076   0.4462   2.0561
     2.1658   2.8067

          k = 0.0833-0.2406-0.1667 (  2320 PWs)   bands (ev):

   -17.9628 -17.2464 -16.7451 -15.3794 -14.3240 -12.2517 -11.0286  -9.5739
    -8.4864  -8.2091  -8.0132  -7.4582  -6.4713  -5.7376  -5.5054  -5.0429
    -4.7889  -4.3728  -4.2079  -3.0930  -1.7725  -0.5217   0.0890   1.8167
     2.3823   3.8826

          k = 0.0833-0.0481-0.1667 (  2338 PWs)   bands (ev):

   -18.7020 -16.7960 -15.9385 -15.1068 -13.8308 -12.6345 -11.8675 -11.0567
    -9.3161  -8.2478  -7.8869  -6.6858  -6.3441  -5.6182  -5.1949  -4.9163
    -4.4658  -4.1760  -3.5254  -2.7247  -1.5301  -0.2943   0.6924   2.3125
     2.3227   3.0500

     the Fermi energy is     0.1170 ev

!    total energy              =    -124.64531540 Ry
     estimated scf accuracy    <       0.00000007 Ry
     smearing contrib. (-TS)   =      -0.00213792 Ry
     internal energy E=F+TS    =    -124.64317747 Ry

     convergence has been achieved in   8 iterations
  * IN ARTn_QE::          11
 Elements:C  

     Forces acting on atoms (cartesian axes, Ry/au):

     atom    1 type  1   force =    -0.00177126   -0.00119493    0.00404097
     atom    2 type  1   force =     0.00119091   -0.00051187    0.00245148
     atom    3 type  1   force =    -0.00310311   -0.00399499   -0.00087497
     atom    4 type  1   force =    -0.00305079   -0.00031960    0.00141532
     atom    5 type  1   force =    -0.00810498   -0.00151658   -0.00231423
     atom    6 type  1   force =    -0.00388897    0.00720689   -0.00046321
     atom    7 type  1   force =     0.00234763   -0.00244891   -0.00845795
     atom    8 type  1   force =     0.00629386   -0.00107265   -0.00340282
     atom    9 type  1   force =    -0.00051974   -0.00725234    0.00282978
     atom   10 type  1   force =     0.00427249   -0.00401629    0.00191204
     atom   11 type  1   force =    -0.00176897   -0.00844606   -0.00186069

     Total force =     0.022786     Total SCF correction =     0.000647

     Entering FIRE :       iteration =    11

     FIRE Parameters: P = 0.00000000, dt = 20.00, alpha = 0.000 nsteppos =   1 at step 11


ATOMIC_POSITIONS (angstrom)
C             0.0943265640        0.2994546847        0.0009384609
C            -1.3846746075        2.2909629904        0.0005693236
C             2.5129365509        0.0094198518       -0.0002032010
C             1.1831244563        1.9773300839        0.0003286900
C             4.8725376829        0.0147965846       -0.0005374498
C             3.6898585220        2.2726427668       -0.0001075754
C            -1.2179443655        3.6512518054       -0.0019642479
C             2.4834845363        1.4337755511       -0.0007902597
C             1.1998462309        3.4324270918        0.0006571793
C             4.8685715693        1.4638215861        0.0004440471
C             3.7367351342        3.7290126094       -0.0004321209



     Writing config-only to output data dir ./pwscf.save/
     NEW-OLD atomic charge density approx. for the potential

     negative rho (up, down):  2.991E-07 0.000E+00

     total cpu time spent up to now is        4.2 secs

     Self-consistent Calculation

     iteration #  1     ecut=    20.00 Ry     beta= 0.70
     Davidson diagonalization with overlap
     ethr =  1.00E-06,  avg # of iterations =  2.7

     Threshold (ethr) on eigenvalues was too large:
     Diagonalizing with lowered threshold

     Davidson diagonalization with overlap
     ethr =  4.88E-08,  avg # of iterations =  2.3

     negative rho (up, down):  2.983E-07 0.000E+00

     total cpu time spent up to now is        4.3 secs

     total energy              =    -124.64511966 Ry
     estimated scf accuracy    <       0.00002568 Ry

     iteration #  2     ecut=    20.00 Ry     beta= 0.70
     Davidson diagonalization with overlap
     ethr =  5.84E-08,  avg # of iterations =  2.0

     negative rho (up, down):  3.079E-07 0.000E+00

     total cpu time spent up to now is        4.3 secs

     total energy              =    -124.64511905 Ry
     estimated scf accuracy    <       0.00003398 Ry

     iteration #  3     ecut=    20.00 Ry     beta= 0.70
     Davidson diagonalization with overlap
     ethr =  5.84E-08,  avg # of iterations =  2.0

     negative rho (up, down):  2.902E-07 0.000E+00

     total cpu time spent up to now is        4.4 secs

     total energy              =    -124.64512332 Ry
     estimated scf accuracy    <       0.00002703 Ry

     iteration #  4     ecut=    20.00 Ry     beta= 0.70
     Davidson diagonalization with overlap
     ethr =  5.84E-08,  avg # of iterations =  1.3

     negative rho (up, down):  2.995E-07 0.000E+00

     total cpu time spent up to now is        4.4 secs

     total energy              =    -124.64512716 Ry
     estimated scf accuracy    <       0.00000255 Ry

     iteration #  5     ecut=    20.00 Ry     beta= 0.70
     Davidson diagonalization with overlap
     ethr =  5.78E-09,  avg # of iterations =  2.0

     negative rho (up, down):  2.996E-07 0.000E+00

     total cpu time spent up to now is        4.4 secs

     total energy              =    -124.64512760 Ry
     estimated scf accuracy    <       0.00000017 Ry

     iteration #  6     ecut=    20.00 Ry     beta= 0.70
     Davidson diagonalization with overlap
     ethr =  3.96E-10,  avg # of iterations =  2.0

     negative rho (up, down):  2.986E-07 0.000E+00

     total cpu time spent up to now is        4.5 secs

     End of self-consistent calculation

          k = 0.0833 0.1443-0.1667 (  2328 PWs)   bands (ev):

   -18.4233 -17.6542 -15.4846 -14.6347 -13.8525 -12.6025 -11.7149 -11.1957
   -10.2724  -8.4939  -7.4576  -6.3988  -6.3345  -5.5723  -5.4753  -5.1574
    -4.3053  -3.9377  -3.0460  -2.4121  -1.4775   0.1055   0.4526   2.0519
     2.1624   2.8104

          k = 0.0833-0.2406-0.1667 (  2320 PWs)   bands (ev):

   -17.9608 -17.2490 -16.7412 -15.3782 -14.3233 -12.2513 -11.0309  -9.5759
    -8.4915  -8.2066  -8.0142  -7.4491  -6.4733  -5.7366  -5.5041  -5.0448
    -4.7899  -4.3695  -4.2076  -3.0936  -1.7698  -0.5169   0.0873   1.8134
     2.3822   3.8753

[...]

     FIRE Parameters: P = 0.00000002, dt = 13.90, alpha = 0.186 nsteppos =  12 at step183


ATOMIC_POSITIONS (angstrom)
C             0.0475903226        0.1879169191       -0.0000568948
C            -1.2854157035        2.3798851029        0.0000371425
C             2.4851562471        0.2046909719       -0.0000109032
C             1.1899012197        2.2712417009       -0.0001181338
C             4.8930132333        0.1807753285       -0.0000759583
C             3.6660343633        2.3430665398       -0.0000709219
C            -1.1851225737        3.7589358562        0.0000174229
C             2.4182357890        1.6015304211       -0.0000496594
C             1.2072900012        3.6844406646       -0.0000661249
C             4.9026654046        1.6113962210       -0.0000473093
C             3.7004239216        3.7737180331       -0.0000902974



     Writing config-only to output data dir ./pwscf.save/
     NEW-OLD atomic charge density approx. for the potential

     negative rho (up, down):  7.025E-07 0.000E+00

     total cpu time spent up to now is       59.3 secs

     Self-consistent Calculation

     iteration #  1     ecut=    20.00 Ry     beta= 0.70
     Davidson diagonalization with overlap
     ethr =  1.00E-06,  avg # of iterations =  2.0

     Threshold (ethr) on eigenvalues was too large:
     Diagonalizing with lowered threshold

     Davidson diagonalization with overlap
     ethr =  9.13E-09,  avg # of iterations =  3.7

     negative rho (up, down):  7.012E-07 0.000E+00

     total cpu time spent up to now is       59.4 secs

     total energy              =    -124.65881198 Ry
     estimated scf accuracy    <       0.00000465 Ry

     iteration #  2     ecut=    20.00 Ry     beta= 0.70
     Davidson diagonalization with overlap
     ethr =  1.06E-08,  avg # of iterations =  2.7

     negative rho (up, down):  7.020E-07 0.000E+00

     total cpu time spent up to now is       59.4 secs

     total energy              =    -124.65881154 Ry
     estimated scf accuracy    <       0.00000642 Ry

     iteration #  3     ecut=    20.00 Ry     beta= 0.70
     Davidson diagonalization with overlap
     ethr =  1.06E-08,  avg # of iterations =  2.3

     negative rho (up, down):  6.996E-07 0.000E+00

     total cpu time spent up to now is       59.4 secs

     total energy              =    -124.65881290 Ry
     estimated scf accuracy    <       0.00000168 Ry

     iteration #  4     ecut=    20.00 Ry     beta= 0.70
     Davidson diagonalization with overlap
     ethr =  3.81E-09,  avg # of iterations =  2.0

     negative rho (up, down):  7.012E-07 0.000E+00

     total cpu time spent up to now is       59.5 secs

     total energy              =    -124.65881303 Ry
     estimated scf accuracy    <       0.00000123 Ry

     iteration #  5     ecut=    20.00 Ry     beta= 0.70
     Davidson diagonalization with overlap
     ethr =  2.79E-09,  avg # of iterations =  1.0

     negative rho (up, down):  7.008E-07 0.000E+00

     total cpu time spent up to now is       59.5 secs

     total energy              =    -124.65881319 Ry
     estimated scf accuracy    <       0.00000013 Ry

     iteration #  6     ecut=    20.00 Ry     beta= 0.70
     Davidson diagonalization with overlap
     ethr =  3.04E-10,  avg # of iterations =  2.0

     negative rho (up, down):  7.008E-07 0.000E+00

     total cpu time spent up to now is       59.5 secs

     End of self-consistent calculation

          k = 0.0833 0.1443-0.1667 (  2328 PWs)   bands (ev):

   -18.5912 -17.7563 -15.6354 -14.8832 -13.8748 -12.7594 -11.9932 -11.2332
   -10.2070  -8.8175  -7.3635  -6.4771  -6.4482  -5.8286  -5.5511  -5.4953
    -4.4380  -3.6029  -3.1899  -2.5306  -1.5502   0.0850   0.3867   1.4025
     2.1430   2.9702

          k = 0.0833-0.2406-0.1667 (  2320 PWs)   bands (ev):

   -18.0926 -17.5052 -16.7930 -15.5495 -14.3769 -12.3529 -11.1040  -9.7038
    -8.8277  -8.4338  -8.0564  -7.5876  -6.7183  -5.8534  -5.7477  -5.2356
    -5.1329  -4.4231  -3.1891  -3.1400  -1.8157  -0.5967   0.1379   0.8818
     2.3517   4.1096

          k = 0.0833-0.0481-0.1667 (  2338 PWs)   bands (ev):

   -18.8423 -16.9690 -16.0378 -15.3039 -13.9218 -12.8294 -11.9408 -11.1161
    -9.3881  -8.4959  -7.9135  -6.8707  -6.8020  -5.9832  -5.0820  -4.6056
    -4.5108  -4.1027  -3.6084  -2.8496  -1.7144  -0.1105   0.7029   1.3925
     2.3173   3.2002

     the Fermi energy is     0.1228 ev

!    total energy              =    -124.65881322 Ry
     estimated scf accuracy    <          4.3E-09 Ry
     smearing contrib. (-TS)   =      -0.00109877 Ry
     internal energy E=F+TS    =    -124.65771444 Ry

     convergence has been achieved in   6 iterations
  * IN ARTn_QE::          11
 Elements:C  

     Forces acting on atoms (cartesian axes, Ry/au):

     atom    1 type  1   force =    -0.00127446   -0.00063877    0.00000197
     atom    2 type  1   force =     0.00060415   -0.00041847   -0.00000134
     atom    3 type  1   force =     0.00049551    0.00024423   -0.00000326
     atom    4 type  1   force =     0.00127140    0.00120821    0.00000044
     atom    5 type  1   force =    -0.00014568    0.00000211    0.00000166
     atom    6 type  1   force =    -0.00023918   -0.00017552    0.00000100
     atom    7 type  1   force =     0.00003071   -0.00023350   -0.00000238
     atom    8 type  1   force =    -0.00005968    0.00018524   -0.00000179
     atom    9 type  1   force =     0.00064672   -0.00016982    0.00000027
     atom   10 type  1   force =    -0.00076578    0.00018985    0.00000056
     atom   11 type  1   force =    -0.00056370   -0.00019355    0.00000286

     Total force =     0.002753     Total SCF correction =     0.000129

     Entering FIRE :       iteration =   184

     FIRE Parameters: P = -.00000003, dt =  6.95, alpha = 0.200 nsteppos =   0 at step184


ATOMIC_POSITIONS (angstrom)
C             0.0474034007        0.1886888077       -0.0000592894
C            -1.2859841598        2.3799751538        0.0000376372
C             2.4853437257        0.2042592903       -0.0000066399
C             1.1907843713        2.2709913070       -0.0001180030
C             4.8928639856        0.1808630902       -0.0000790998
C             3.6660082610        2.3432041750       -0.0000706605
C            -1.1853121235        3.7589041293        0.0000193776
C             2.4186537485        1.6011738012       -0.0000461109
C             1.2075045378        3.6839539468       -0.0000662190
C             4.9021733584        1.6115634525       -0.0000493149
C             3.7003331195        3.7740206054       -0.0000933151



     Writing config-only to output data dir ./pwscf.save/
     NEW-OLD atomic charge density approx. for the potential

     negative rho (up, down):  6.998E-07 0.000E+00

     total cpu time spent up to now is       59.6 secs

     Self-consistent Calculation

     iteration #  1     ecut=    20.00 Ry     beta= 0.70
     Davidson diagonalization with overlap
     ethr =  1.00E-06,  avg # of iterations =  2.0

     Threshold (ethr) on eigenvalues was too large:
     Diagonalizing with lowered threshold

     Davidson diagonalization with overlap
     ethr =  2.23E-09,  avg # of iterations =  3.7

     negative rho (up, down):  7.006E-07 0.000E+00

     total cpu time spent up to now is       59.7 secs

     total energy              =    -124.65881329 Ry
     estimated scf accuracy    <       0.00000133 Ry

     iteration #  2     ecut=    20.00 Ry     beta= 0.70
     Davidson diagonalization with overlap
     ethr =  3.02E-09,  avg # of iterations =  2.7

     negative rho (up, down):  7.015E-07 0.000E+00

     total cpu time spent up to now is       59.7 secs

     total energy              =    -124.65881321 Ry
     estimated scf accuracy    <       0.00000164 Ry

     iteration #  3     ecut=    20.00 Ry     beta= 0.70
     Davidson diagonalization with overlap
     ethr =  3.02E-09,  avg # of iterations =  2.0

     negative rho (up, down):  7.011E-07 0.000E+00

     total cpu time spent up to now is       59.7 secs

     total energy              =    -124.65881352 Ry
     estimated scf accuracy    <       0.00000071 Ry

     iteration #  4     ecut=    20.00 Ry     beta= 0.70
     Davidson diagonalization with overlap
     ethr =  1.61E-09,  avg # of iterations =  2.0

     negative rho (up, down):  7.013E-07 0.000E+00

     total cpu time spent up to now is       59.8 secs

     total energy              =    -124.65881359 Ry
     estimated scf accuracy    <       0.00000045 Ry

     iteration #  5     ecut=    20.00 Ry     beta= 0.70
     Davidson diagonalization with overlap
     ethr =  1.01E-09,  avg # of iterations =  1.0

     negative rho (up, down):  7.007E-07 0.000E+00

     total cpu time spent up to now is       59.8 secs

     End of self-consistent calculation

          k = 0.0833 0.1443-0.1667 (  2328 PWs)   bands (ev):

   -18.5919 -17.7555 -15.6367 -14.8828 -13.8750 -12.7603 -11.9925 -11.2341
   -10.2074  -8.8161  -7.3622  -6.4776  -6.4502  -5.8294  -5.5506  -5.4947
    -4.4393  -3.6018  -3.1906  -2.5307  -1.5502   0.0851   0.3860   1.4029
     2.1428   2.9704

          k = 0.0833-0.2406-0.1667 (  2320 PWs)   bands (ev):

   -18.0923 -17.5060 -16.7933 -15.5499 -14.3767 -12.3524 -11.1039  -9.7041
    -8.8296  -8.4334  -8.0570  -7.5882  -6.7193  -5.8531  -5.7471  -5.2362
    -5.1319  -4.4234  -3.1896  -3.1394  -1.8154  -0.5954   0.1380   0.8803
     2.3523   4.1097

          k = 0.0833-0.0481-0.1667 (  2338 PWs)   bands (ev):

   -18.8426 -16.9686 -16.0384 -15.3041 -13.9223 -12.8304 -11.9408 -11.1159
    -9.3882  -8.4944  -7.9147  -6.8695  -6.8022  -5.9853  -5.0815  -4.6054
    -4.5124  -4.1015  -3.6088  -2.8498  -1.7144  -0.1106   0.7021   1.3930
     2.3177   3.1998

     the Fermi energy is     0.1229 ev

!    total energy              =    -124.65881363 Ry
     estimated scf accuracy    <       0.00000004 Ry
     smearing contrib. (-TS)   =      -0.00110106 Ry
     internal energy E=F+TS    =    -124.65771257 Ry

     convergence has been achieved in   5 iterations
  * IN ARTn_QE::          11
 Elements:C  

     Forces acting on atoms (cartesian axes, Ry/au):

     atom    1 type  1   force =    -0.00086371   -0.00086372    0.00000224
     atom    2 type  1   force =     0.00056349   -0.00043812   -0.00000117
     atom    3 type  1   force =     0.00037062    0.00021654   -0.00000392
     atom    4 type  1   force =     0.00087850    0.00102148    0.00000033
     atom    5 type  1   force =    -0.00012923   -0.00003852    0.00000206
     atom    6 type  1   force =    -0.00034444   -0.00000064    0.00000070
     atom    7 type  1   force =    -0.00004160   -0.00002665   -0.00000250
     atom    8 type  1   force =    -0.00000702    0.00014759   -0.00000242
     atom    9 type  1   force =     0.00048090    0.00023665    0.00000040
     atom   10 type  1   force =    -0.00038300   -0.00003632    0.00000105
     atom   11 type  1   force =    -0.00052450   -0.00021829    0.00000323

     Total force =     0.002218     Total SCF correction =     0.000322
     SCF correction compared to forces is large: reduce conv_thr to get better values

     Entering FIRE :       iteration =   185

     FIRE Parameters: P = 0.00000001, dt =  6.95, alpha = 0.200 nsteppos =   1 at step185


ATOMIC_POSITIONS (angstrom)
C             0.0473447132        0.1886443813       -0.0000591671
C            -1.2859509714        2.3799504995        0.0000375662
C             2.4853677562        0.2042723146       -0.0000068494
C             1.1908435053        2.2710540054       -0.0001179815
C             4.8928562143        0.1808617954       -0.0000789907
C             3.6659908931        2.3432002150       -0.0000706138
C            -1.1853128842        3.7588979621        0.0000192372
C             2.4186521652        1.6011830997       -0.0000462355
C             1.2075358033        3.6839583831       -0.0000661990
C             4.9021428330        1.6115664459       -0.0000492656
C             3.7003021971        3.7740086572       -0.0000931386



     Writing config-only to output data dir ./pwscf.save/
     NEW-OLD atomic charge density approx. for the potential

     negative rho (up, down):  7.008E-07 0.000E+00

     total cpu time spent up to now is       59.9 secs

     Self-consistent Calculation

     iteration #  1     ecut=    20.00 Ry     beta= 0.70
     Davidson diagonalization with overlap
     ethr =  1.00E-06,  avg # of iterations =  2.0

     Threshold (ethr) on eigenvalues was too large:
     Diagonalizing with lowered threshold

     Davidson diagonalization with overlap
     ethr =  1.43E-09,  avg # of iterations =  1.0

     negative rho (up, down):  7.009E-07 0.000E+00

     total cpu time spent up to now is       59.9 secs

     total energy              =    -124.65881376 Ry
     estimated scf accuracy    <       0.00000070 Ry

     iteration #  2     ecut=    20.00 Ry     beta= 0.70
     Davidson diagonalization with overlap
     ethr =  1.59E-09,  avg # of iterations =  3.7

     negative rho (up, down):  6.989E-07 0.000E+00

     total cpu time spent up to now is       60.0 secs

     total energy              =    -124.65881310 Ry
     estimated scf accuracy    <       0.00001001 Ry

     iteration #  3     ecut=    20.00 Ry     beta= 0.70
     Davidson diagonalization with overlap
     ethr =  1.59E-09,  avg # of iterations =  3.7

     negative rho (up, down):  6.998E-07 0.000E+00

     total cpu time spent up to now is       60.0 secs

     total energy              =    -124.65881418 Ry
     estimated scf accuracy    <       0.00000011 Ry

     iteration #  4     ecut=    20.00 Ry     beta= 0.70
     Davidson diagonalization with overlap
     ethr =  2.61E-10,  avg # of iterations =  2.0

     negative rho (up, down):  7.010E-07 0.000E+00

     total cpu time spent up to now is       60.1 secs

     End of self-consistent calculation

          k = 0.0833 0.1443-0.1667 (  2328 PWs)   bands (ev):

   -18.5920 -17.7554 -15.6369 -14.8829 -13.8750 -12.7605 -11.9925 -11.2342
   -10.2074  -8.8161  -7.3620  -6.4777  -6.4504  -5.8295  -5.5506  -5.4947
    -4.4395  -3.6016  -3.1907  -2.5308  -1.5501   0.0850   0.3859   1.4030
     2.1428   2.9705

          k = 0.0833-0.2406-0.1667 (  2320 PWs)   bands (ev):

   -18.0923 -17.5063 -16.7933 -15.5500 -14.3766 -12.3523 -11.1039  -9.7043
    -8.8300  -8.4335  -8.0571  -7.5882  -6.7195  -5.8531  -5.7471  -5.2364
    -5.1319  -4.4234  -3.1897  -3.1390  -1.8154  -0.5953   0.1380   0.8801
     2.3523   4.1099

          k = 0.0833-0.0481-0.1667 (  2338 PWs)   bands (ev):

   -18.8427 -16.9686 -16.0384 -15.3042 -13.9224 -12.8306 -11.9409 -11.1159
    -9.3882  -8.4943  -7.9146  -6.8695  -6.8023  -5.9857  -5.0815  -4.6055
    -4.5125  -4.1012  -3.6088  -2.8498  -1.7145  -0.1106   0.7020   1.3931
     2.3177   3.1999

     the Fermi energy is     0.1229 ev

!    total energy              =    -124.65881420 Ry
     estimated scf accuracy    <          3.9E-09 Ry
     smearing contrib. (-TS)   =      -0.00109982 Ry
     internal energy E=F+TS    =    -124.65771438 Ry

     convergence has been achieved in   4 iterations
  * IN ARTn_QE::          11
 Elements:C  
     |> Configuration Files: * Start: initp.xsf | sad0001.xsf | min0001.xsf | min0002.xsf
     |> BLOCK FINALIZE..
     !> CLEANING ARTn | Fail: 0
 ARTn calculation converged, stopping
  * PLUGIN_EXT_FORCE::   1.000000000000000E-003   1.00000000000000     

     Forces acting on atoms (cartesian axes, Ry/au):

     atom    1 type  1   force =     0.00000000    0.00000000    0.00000000
     atom    2 type  1   force =     0.00000000    0.00000000    0.00000000
     atom    3 type  1   force =     0.00000000    0.00000000    0.00000000
     atom    4 type  1   force =     0.00000000    0.00000000    0.00000000
     atom    5 type  1   force =     0.00000000    0.00000000    0.00000000
     atom    6 type  1   force =     0.00000000    0.00000000    0.00000000
     atom    7 type  1   force =     0.00000000    0.00000000    0.00000000
     atom    8 type  1   force =     0.00000000    0.00000000    0.00000000
     atom    9 type  1   force =     0.00000000    0.00000000    0.00000000
     atom   10 type  1   force =     0.00000000    0.00000000    0.00000000
     atom   11 type  1   force =     0.00000000    0.00000000    0.00000000

     Total force =     0.000000     Total SCF correction =     0.000102

     FIRE: convergence achieved in 185 steps

     End of FIRE minimization

     Final energy =    -124.6588142006 Ry

Begin final coordinates
     new unit-cell volume =   1545.19462 a.u.^3 (   228.97422 Ang^3 )
     density =      0.95813 g/cm^3

CELL_PARAMETERS (alat=  4.62800000)
   3.000000000   0.000000000   0.000000000
  -1.000000000   1.732050808   0.000000000
   0.000000000   0.000000000   3.000000000

ATOMIC_POSITIONS (angstrom)
C             0.0461193990       -0.0177741360        0.0000000000
C            -1.2813162550        2.1771688850        0.0000000000
C             2.4839598060        0.0062397630        0.0000000000
C             1.1910063690        2.0756602640        0.0000000000
C             4.8928136060       -0.0185837340        0.0000000000
C             3.6659776180        2.1423086150        0.0000000000
C            -1.1846221040        3.5573579920        0.0000000000
C             2.4173451830        1.4027028660        0.0000000000
C             1.2070625210        3.4872308590        0.0000000000
C             4.9034255330        1.4116172030        0.0000000000
C             3.6989123940        3.5720765730        0.0000000000
End final coordinates



     Writing all to output data dir ./pwscf.save/
 
     init_run     :      0.04s CPU      0.04s WALL (       1 calls)
     electrons    :     47.63s CPU     49.89s WALL (     186 calls)
     update_pot   :      2.08s CPU      2.42s WALL (     185 calls)
     forces       :      2.14s CPU      2.51s WALL (     186 calls)

     Called by init_run:
     wfcinit      :      0.01s CPU      0.01s WALL (       1 calls)
     potinit      :      0.01s CPU      0.01s WALL (       1 calls)
     hinit0       :      0.01s CPU      0.01s WALL (       1 calls)

     Called by electrons:
     c_bands      :     30.38s CPU     31.85s WALL (    1304 calls)
     sum_band     :      8.27s CPU      8.67s WALL (    1304 calls)
     v_of_rho     :      4.96s CPU      5.16s WALL (    1397 calls)
     newd         :      3.80s CPU      4.03s WALL (    1397 calls)
     mix_rho      :      0.45s CPU      0.47s WALL (    1304 calls)

     Called by c_bands:
     init_us_2    :      0.44s CPU      0.46s WALL (    8385 calls)
     init_us_2:cp :      0.42s CPU      0.45s WALL (    8385 calls)
     cegterg      :     28.56s CPU     29.94s WALL (    3912 calls)

     Called by *egterg:
     cdiaghg      :      9.07s CPU      9.46s WALL (   13492 calls)
     h_psi        :     16.38s CPU     17.23s WALL (   14329 calls)
     s_psi        :      0.52s CPU      0.55s WALL (   14329 calls)
     g_psi        :      0.07s CPU      0.07s WALL (   10414 calls)

     Called by h_psi:
     h_psi:calbec :      1.08s CPU      1.14s WALL (   14329 calls)
     vloc_psi     :     14.59s CPU     15.34s WALL (   14329 calls)
     add_vuspsi   :      0.58s CPU      0.62s WALL (   14329 calls)

     General routines
     calbec       :      1.53s CPU      1.65s WALL (   20473 calls)
     fft          :      2.74s CPU      3.07s WALL (   18439 calls)
     ffts         :      0.11s CPU      0.12s WALL (    2701 calls)
     fftw         :     15.66s CPU     16.46s WALL (  640682 calls)
     interpolate  :      0.22s CPU      0.23s WALL (    1397 calls)
 
     Parallel routines
 
     PWSCF        :     56.21s CPU   1m 0.13s WALL

 
   This run was terminated on:  12:15:28  15Nov2022            

=------------------------------------------------------------------------------=
   JOB DONE.
=------------------------------------------------------------------------------=
