Box of Si                                                                                                                                              

  1000 atoms
  1    atom types
  0.0 27.664 xlo xhi 
  0.0 27.664 ylo yhi 
  0.0 27.664 zlo zhi

  Atoms

1	      1        0.01210183       -8.90282647        6.73468136
2	      1      -12.99635349       -8.94613997       -8.09154422
3	      1       -7.80781066      -12.42939460      -11.72028627
4	      1      -10.24740536        8.37386267      -10.51449794
5	      1       12.88207132       12.83763935       13.40823651
6	      1        8.88254575      -11.00363961        0.72163725
7	      1      -13.72997168       -3.69620390       -0.72458693
8	      1       -2.90766162       -4.90306664       12.42311808
9	      1        0.82944060       -1.69196240        6.06330766
10	      1       -0.90767942       -0.18378671       -0.59943248
11	      1       -1.28342544       -3.83410384       -0.76018560
12	      1       -2.91865187       12.85098784       12.70023597
13	      1       11.99170636      -11.41154250       11.54156218
14	      1        8.84398204        2.85909857       -4.31788481
15	      1       -5.41910003       12.04240703       -4.81668721
16	      1      -11.67729741       -6.05823415        8.00118379
17	      1       -5.38854871      -10.40506338        5.05660946
18	      1        5.62067964        9.31275251       -1.38934752
19	      1       -2.66666910       10.35497726        5.08674581
20	      1        8.60817008       12.98140569        1.22106789
21	      1       -2.33779004       -9.67895278        1.71427402
22	      1        3.08389763       -4.07200324        7.11877442
23	      1        4.96228689        2.49513957       -9.91841351
24	      1       10.40364863      -13.25521554       -3.75746823
25	      1        0.32633659      -12.68606893       -8.43211333
26	      1       -0.20996692        9.70977430       -6.32597404
27	      1       12.94294838       -9.48380333        3.56072901
28	      1       -5.34364318       -8.65504192        9.31220396
29	      1       -9.94061061        3.23788587      -12.08754237
30	      1       -0.26688053       -5.40549131        5.50755005
31	      1        4.80441451       -5.88179639      -13.43713352
32	      1      -10.97142364       -8.70381670       -4.84491741
33	      1      -10.67217672        2.85781228        3.40483586
34	      1        9.77244524      -11.00740978       12.28556923
35	      1        8.23944780        6.11728165       12.53552662
36	      1      -11.87256338       -0.51261301        3.58787514
37	      1       10.78399606        6.60699591       -7.42534708
38	      1        6.99169198       -0.62420709       -4.73953252
39	      1       -5.78346029        2.73896372       -9.45488021
40	      1       10.78196039        0.39443114        1.38370207
41	      1       10.84327323        7.09204461       -0.03246248
42	      1       10.62264772       -2.20993959        8.68838130
43	      1        4.54638515        0.76453897       11.50253677
44	      1        8.92491302       -8.84189098       -4.54677743
45	      1        1.27629532       13.01183141       -1.32805288
46	      1       -4.07871482       11.02691134       -8.07893592
47	      1      -13.27122902        7.70096284      -13.10841714
48	      1        6.69632327        4.98261389       -2.01030970
49	      1      -12.65135931       -7.22440526       -1.78782986
50	      1        9.87212090        4.94126679        8.96730766
51	      1        1.20109668       -9.38552807        1.01117866
52	      1        7.51534229        2.42020244        1.43433900
53	      1       -3.15472160       -7.74212859       -5.00049096
54	      1        0.31501358       -6.09805083       13.24678788
55	      1        6.87449833       -5.77799123       11.06255501
56	      1        4.66949907       -3.09909606       -8.15954685
57	      1        1.88771511       -8.90546036        3.24353880
58	      1        5.74502994       11.78435629        9.35381317
59	      1       -0.56522492       11.84539505        7.30299781
60	      1       -4.28571623        4.32867791        0.31226891
61	      1        2.26161343        3.16675427      -12.54523840
62	      1       -8.81791897        0.69823157       -4.30542499
63	      1        8.10309329       11.74009432        9.25556911
64	      1        5.41002527        0.02011010      -10.35429032
65	      1       -7.17330642       -5.84242612       -6.12345657
66	      1        7.09684802        5.17521887        3.63676913
67	      1      -11.69813151       13.24018604      -11.61471419
68	      1       -3.21771610        7.16414862       -4.01304313
69	      1        0.10519495       12.13670806       -3.15639786
70	      1        7.16179407        3.10297282       -9.30812017
71	      1       10.40619178      -10.28019360      -13.05634134
72	      1       13.84325050        9.73420058      -10.13796125
73	      1       13.34403775       -6.60889842        1.49706208
74	      1       -3.10803685        3.43803804      -12.64005617
75	      1       -1.38050143        1.83312682      -12.07154516
76	      1        2.64806999       10.73243131       10.72097849
77	      1        2.64334222       -4.11213212       11.14417397
78	      1        7.66579152       -7.73805514       12.16739568
79	      1        3.91968271      -10.79554992        7.75812185
80	      1       -3.91621360       -1.12258081      -11.11192587
81	      1        6.99707768        7.58519420        9.03586182
82	      1       -8.83108688        3.94380065       -6.23726920
83	      1       11.05290136       -8.62985850       -1.45443229
84	      1      -12.88223371       -0.29792829        5.78723410
85	      1        0.81590524       -5.66654696       -9.08209749
86	      1        5.63505515       -9.61670479        2.60232898
87	      1       -0.79165300       -2.46160501       -7.79393542
88	      1        9.58347963      -12.68236542        8.00194529
89	      1       -2.32635769        3.74510075       -3.09251775
90	      1       -3.54733154        5.81509664      -11.79828748
91	      1       11.80822090        4.47455207        2.41601415
92	      1        0.58344165       12.47072724      -11.85160756
93	      1       -7.68385305        0.41059441      -12.13918032
94	      1      -10.28070358        9.70349882       -7.24864003
95	      1       -4.98727953      -13.59348079       -3.68397095
96	      1       -9.88713387       -6.75381266       -3.97609448
97	      1       10.13771244       -7.82016245       -7.89123062
98	      1       13.01539027        9.50033655       11.39584096
99	      1       -2.20313461       10.12206398      -12.33703090
100	      1       -0.08926644        6.12630396       -1.22126471
101	      1       -4.89363603       11.65028239        8.05950228
102	      1      -12.59996363       -1.63090191       -3.67222458
103	      1        9.08928329      -12.93982266      -10.70774739
104	      1       -8.63296668       -4.75132417        5.08899112
105	      1       -9.72100256       -1.19086801        4.12231139
106	      1        3.07298768       -2.23395612        5.71916969
107	      1        9.69331554        9.82706358       -9.34213583
108	      1       11.33146403        5.34176757       -5.47024667
109	      1       -3.81495661        1.34410289        2.72163594
110	      1       -3.29819627       -9.09772860      -13.78645466
111	      1      -13.77172428       13.73790409       -8.10034014
112	      1        1.78978769      -11.92457946        7.45486018
113	      1       11.16324049        6.94389148      -11.07037807
114	      1       12.87571409        7.65328304        0.99132549
115	      1       -3.39976516       -3.00938385        8.45085300
116	      1      -10.58187673      -13.07402560        5.31224940
117	      1       -7.77518121        4.73466528       -1.59877416
118	      1        8.65096018        2.49975640      -12.95382015
119	      1       -8.77268477       -8.66256118       13.03612256
120	      1        8.90386646        2.21027337      -10.63253728
121	      1       12.58383290        5.94040279      -12.81335392
122	      1       -9.19612311      -12.10443795       -0.26915485
123	      1       -0.66819193      -13.40526377        4.52655978
124	      1        5.91536234       -8.40129816      -11.20723901
125	      1      -13.02322089        6.83304819       -6.51272668
126	      1        2.66013404       12.32263232       -6.79895939
127	      1       -8.05072448        6.25235546        3.82974742
128	      1       11.18920927      -13.73728553      -11.27083008
129	      1       -6.91189388      -11.08169476        6.65761854
130	      1      -12.68010063       -5.35814554       -6.75894360
131	      1        5.02249899       11.07369964        7.12662672
132	      1      -12.80664561      -10.41254630        6.22208638
133	      1       -2.58363121       -2.60226111      -12.42213383
134	      1      -10.75098280       -4.85619907       -5.23123820
135	      1        5.30069909       -4.50098404        7.62777586
136	      1        5.98774717       -6.50585708        0.19153526
137	      1        9.53415338        2.17921437        5.04387109
138	      1        2.80509763       -9.10973569       -0.62335234
139	      1        6.25093767      -12.65598238       11.29897870
140	      1       12.98845540      -11.82960964        3.68218998
141	      1        9.55016961       -3.21767768       -1.72957706
142	      1       -0.87300326        0.59910940       13.49977707
143	      1        9.20528743        9.73832435       -1.99150935
144	      1        3.87651147        9.06682531        6.89671668
145	      1      -10.77477313       -4.15189198       11.00292806
146	      1       -6.06050444        8.52132412        1.12687266
147	      1        1.93187902       -5.86591352        5.86995660
148	      1       11.43386813       -0.62739223       10.25909711
149	      1       13.77575261        1.91313376       11.94416404
150	      1        7.36976670        1.25785577        7.94282027
151	      1        0.34690191       12.06036564        0.56005878
152	      1        0.08824451        9.11283227        2.38014024
153	      1      -12.19380382       -7.04188785        4.75004771
154	      1        7.99114759       -2.03400448        3.64823067
155	      1      -13.61621283      -13.12100793       -4.18752973
156	      1       -2.90147459       -9.99758822       -8.34308722
157	      1        2.10686032       -2.83375194        1.67266834
158	      1        8.79678479        8.40363038        5.35534723
159	      1        1.29186015      -13.56657374       12.42441954
160	      1        2.16032472        6.81204688       -1.19528128
161	      1        4.36074664       -7.00722257       -9.87718135
162	      1        5.73578930      -11.37016045       -9.17143155
163	      1        5.04159537        1.22409316       13.79794107
164	      1       -0.29444015        7.18823774      -13.31493756
165	      1       12.81493048      -12.54984242        9.59343691
166	      1       -8.15360125       -4.08320496       -0.93558212
167	      1        5.85826780      -12.35836349      -12.68644256
168	      1       11.07490319       -8.96861998       -9.73823599
169	      1      -13.02667077       -9.35202612        9.85472814
170	      1       -1.04776037        7.21856146        3.07093693
171	      1       11.70617356       -3.42060238        2.72214412
172	      1       -7.05086661      -12.33014039       12.11821404
173	      1        7.31420063       -9.76339166        9.26761520
174	      1        1.70299060      -13.23851419       -6.33974932
175	      1      -11.42247225        9.41053300        6.27703436
176	      1        2.36091056       -6.58949203        3.59444571
177	      1       -9.59954547       13.55968458        8.63931068
178	      1       -1.86841346       -4.31392679       -5.10000142
179	      1       11.51167376       -9.47254389        7.91123929
180	      1       -2.06167758       -9.69349242        3.99327013
181	      1        8.26137707       -2.34354232       -8.71614516
182	      1       -5.02520087       -6.57369710       -8.92561622
183	      1      -12.21983050       -5.95358978        2.72467382
184	      1       -6.44578472       -0.89453911        3.04621292
185	      1       -2.62882120        1.57740016       -8.34453753
186	      1       -5.74855967        8.35139443        6.19906577
187	      1        0.92503286       -4.38316720       -1.43864453
188	      1       12.58881633       -9.15089700       -5.09884458
189	      1      -10.12945798       -5.07783610       -0.22489597
190	      1      -12.61305897        5.37357067        5.77731530
191	      1      -13.49368220       -2.01107503       12.34516719
192	      1       10.90461358        3.09505255       -5.64696739
193	      1       -1.87897698       -2.21782012       -3.90618769
194	      1       -5.76743322        0.86919091        1.70860893
195	      1       10.27684578        3.42365189       -0.89374713
196	      1       -9.58634555       -2.89104160      -10.22179391
197	      1       -6.31247928       -6.98313529      -10.76376904
198	      1      -11.23511693       -2.18605406       12.27386926
199	      1        3.37925740       -0.69352688      -11.29156123
200	      1        1.25977484       -9.69069623       10.20034977
201	      1        3.73111838      -11.48906932       -1.32676708
202	      1      -11.57916515        5.80250942       -8.20126526
203	      1       -5.78901420       -7.35561476       11.27858170
204	      1        3.84674885       -2.82023828        3.40486591
205	      1       -9.31939850        5.71246069       12.37140893
206	      1        9.08998559       10.65392532        1.82221875
207	      1       -0.61839931        5.76219392       -5.92140924
208	      1       -1.56376440        7.92100086       -9.29198793
209	      1       -0.42189452        5.34049727       12.98194249
210	      1       13.04307188        9.00467088       -2.52577604
211	      1        4.62241126        9.33291424       -5.19655756
212	      1       -2.86809008       -5.54862086       -0.86965284
213	      1        0.19854811       -9.80593897        4.64614396
214	      1       -4.54239256      -10.98800106       -6.74611250
215	      1       13.19213084       -1.68117916       -9.55818711
216	      1      -13.51340131      -12.24356768       -6.43326680
217	      1       -1.66981043      -11.77758648        0.92712007
218	      1        4.84675319        3.20378973       -1.30725167
219	      1        3.83114309       -9.05414897        6.25217762
220	      1       -7.02060732       10.38510716       -3.77357111
221	      1        9.86767592       -5.28434410       -0.52047672
222	      1       11.34867729       -1.66380882       -2.20674201
223	      1      -12.24685609       -0.00954059        9.51540145
224	      1        9.82039290        8.85881438      -11.48368822
225	      1      -10.32921922        3.78664765       -8.04585218
226	      1      -11.09943792       11.42058741       13.00675835
227	      1       -2.26439011      -13.28701734        2.59974584
228	      1        6.19105313        5.92353840        0.10912804
229	      1       13.76311269       12.20074938       -4.56117558
230	      1       -0.93545674       -7.44792919       -6.05839592
231	      1        7.63397958        5.66099814       10.25735896
232	      1       -5.25569976       -7.92127829       13.53097419
233	      1        4.35112348       12.12240416        2.26446548
234	      1        0.87104687       -8.94758679       -6.39997000
235	      1       -6.28934106      -11.58750006      -13.51220657
236	      1        1.77721099       -0.54327358       -9.50771004
237	      1      -10.56596893       -2.72166092       -4.05743845
238	      1       -7.51414125       -3.68597208        1.32731702
239	      1      -13.35103326        6.13018786       11.45380722
240	      1       -5.39778368       -2.43694075       -9.76628810
241	      1      -12.86448817       10.01351757       -3.95327927
242	      1       -8.11890120        7.85305567        5.43555322
243	      1        5.39206465       -8.96118054       -4.00702583
244	      1       -2.77474490        2.65927439        0.99446303
245	      1       12.05667077       12.85970791        9.63514406
246	      1        6.91999762       -2.69304748        7.53663704
247	      1       -8.61187342        5.07509627        7.20402081
248	      1       12.18422800        3.71634514      -11.81258690
249	      1       -5.14076038        9.90866722       11.64770280
250	      1        0.89203250       -8.10829940      -11.83962041
251	      1      -11.14965198      -13.44059706       -1.08826915
252	      1        3.08364124        1.11454128        3.73054603
253	      1        5.07365011       13.10979943        0.19864809
254	      1        5.74930393       -4.13354993       -6.26160887
255	      1       11.93788890        6.83466506       -2.17030605
256	      1        1.01082721      -11.90201854        5.19144308
257	      1       -3.29685633        0.42951085        8.18632115
258	      1       -3.08469544        5.19952828        7.78862902
259	      1       -4.70026904      -13.06645886        2.92574740
260	      1       -4.72423933       -9.71331325        1.38285373
261	      1       -6.47720970       -7.63911365       -7.38820723
262	      1       -2.27927507      -11.05147852       -3.12260234
263	      1       -2.73937745        1.22709158       -0.96507531
264	      1       -7.75265213      -10.82844000       -3.69329601
265	      1       12.88166702       -8.96654826        1.37749871
266	      1      -10.15346865       -6.44371787        6.14162618
267	      1        7.54197399       -0.96284287       10.73764935
268	      1        9.35134736       -2.60332073       -6.66807140
269	      1        6.93258413       -7.75836130        8.17252245
270	      1        5.45431587       -6.18408258        9.30783579
271	      1      -11.20114384        3.72257008        9.40210300
272	      1        4.90891064       10.94607453       11.72050672
273	      1       -6.14378975       11.87864883       -7.15813381
274	      1      -11.72901839       -6.16303534       11.66763551
275	      1        0.00693691        9.75317516        0.05586610
276	      1       -5.40351491        3.73731010        5.57781141
277	      1       -9.85274459        7.32145202       -8.43785510
278	      1        4.82284423      -10.52744322       -5.72930735
279	      1        8.90850526       -4.75892254       10.53859595
280	      1       -7.38710587       -2.87311620      -11.37740087
281	      1        9.63638941        9.68092905        7.14772578
282	      1       -0.82147610        0.96631675       -5.37328973
283	      1        2.00708424        4.96684949        4.30067905
284	      1       -6.68252323        1.06050391       -1.56211214
285	      1        2.15886417        6.19321805      -10.35751223
286	      1       -4.90416675        7.74867979      -12.80744262
287	      1      -12.15892779       12.62852914       11.27107786
288	      1        4.20980839      -12.83794143       -3.31906564
289	      1        1.07301174       10.03401233       -3.99698656
290	      1       -6.15865536       -2.25269956       -6.05051257
291	      1       10.55728241       11.24159977       -5.99833824
292	      1        3.93020849        4.44596413      -11.18396571
293	      1        2.76996379       -7.21811011       -6.14630755
294	      1       -4.10206002       -2.02006061       -0.41160286
295	      1       -6.97328641        0.99598849       -8.19671955
296	      1        0.01366051      -13.65612602       -4.64790149
297	      1       -9.82574990       -9.87651758       -6.50998884
298	      1      -13.14721001      -12.67143413        0.18940622
299	      1        0.76273041        7.39351195       -4.25041787
300	      1        4.68278656       -0.64333162        0.44707689
301	      1       -8.40947143       -2.38810915        8.29678549
302	      1       14.77192610      -13.01679441        2.47840431
303	      1        7.20471707       11.04273941       -1.99534873
304	      1      -10.43901810        4.39231232        1.69888413
305	      1       -7.69639328        7.00698095       -4.88962090
306	      1      -10.85239927       -3.73972328      -12.11655691
307	      1        4.03051772        9.87723243        1.92368581
308	      1        1.59711308       -7.44674561        9.45009114
309	      1        9.48499203        0.99931201        7.11884956
310	      1       -2.73869044        1.04874397        5.98470243
311	      1       -7.51951734      -10.65796162       -9.50210659
312	      1        0.98045509        2.95628949       -0.02197406
313	      1        3.02218965       10.98864890       -4.89009579
314	      1       -3.81286201       -5.46089934       -4.67032771
315	      1        1.31854316        1.73901333       -9.03645932
316	      1      -12.75743546       -0.13920366      -10.11360457
317	      1       13.24151746       -6.21093002        5.38369227
318	      1       -1.96924571       -8.70954056       11.95005729
319	      1       -3.01740518       -9.20382743        9.79808847
320	      1        4.27529286       -2.86597130       12.31303866
321	      1        7.76104416       -3.28535652       13.59216187
322	      1       12.55407270       -9.94697713       -2.79962828
323	      1        2.03785019        9.38980904        5.53185267
324	      1       -7.38534144       13.01345371       12.33642791
325	      1        9.90412825        0.79313218       -7.75610398
326	      1       -4.16501559       -5.12959997        8.97055996
327	      1        8.33129602       -1.14056075       12.83179810
328	      1       -4.14644066        6.18500432       11.57434525
329	      1      -12.97373766        8.71524880        4.59359743
330	      1       -6.11941734       -5.35958208        7.76051851
331	      1       -3.90210187      -11.40019806      -13.72585602
332	      1        3.67790332        5.16561450       12.53431869
333	      1       -5.09772317       -8.87371375       -5.88794586
334	      1        0.84917421        3.89881949       -5.82237184
335	      1       11.00555078        2.32756902      -13.40629297
336	      1       -1.35107259       -6.49992654       11.76294345
337	      1       -8.10161186       -7.28881632       11.20990735
338	      1       -2.72931995        5.14480421       -4.94044445
339	      1       -7.66756749        4.40693184       11.10320972
340	      1       -8.61557090       -7.98441923        7.14111786
341	      1        8.83259772       13.12174893       13.43536714
342	      1       11.37792492       11.06259346        1.91653769
343	      1       -8.89536022       -8.40248453       -0.66030337
344	      1       -0.72878196      -11.75234515      -12.14982073
345	      1        3.49938939       -1.77411403       -3.81378773
346	      1       10.10249780       -5.60932948       -8.54609447
347	      1       -3.59833282       10.85429241        0.89220589
348	      1       13.53834727        5.07856002       -2.50482088
349	      1       -1.80712799        8.74538779       13.49071705
350	      1       -1.42242674        9.64326891        6.92399204
351	      1       -9.31537466        1.09127683        7.34301542
352	      1       -0.75043632       -4.88005044        3.23982265
353	      1        7.93264373        0.35399321       -1.38699137
354	      1       12.98554971        2.52705948        8.14518924
355	      1       -7.88691082        8.78669749       -2.00738532
356	      1      -11.58857153      -12.54807228       -3.33334901
357	      1       -7.94691267       12.43105128       10.09357684
358	      1       -9.64267854       13.40283530       -8.43659163
359	      1      -11.54477302       -3.17451257       -0.02692403
360	      1       -1.59657175       -2.42907502        9.76929907
361	      1      -12.54430247        4.34376354        0.77524215
362	      1       12.40058507        2.97990500       -1.92436916
363	      1       10.18896824       -7.30085316        2.66641839
364	      1       -1.59691498       -3.00174755       11.96621037
365	      1      -11.43327842        1.11226820        2.09966802
366	      1       -8.64117683        0.75245244       -9.88969627
367	      1        6.80582439        6.74741549       -3.71726481
368	      1        6.64437548      -11.94585322       -5.88607515
369	      1        7.89870069       -1.90696407       -0.76848016
370	      1      -12.10845925       -7.49056706       -9.67860207
371	      1       10.82294660       -0.15459111       -3.98059617
372	      1       -0.68419639        3.66397935        1.52730107
373	      1       -4.55378940        5.73589249       -9.65406208
374	      1      -13.32749912       12.62205478        3.56574196
375	      1      -10.72858127      -12.14491698        3.09342606
376	      1        6.36542231      -13.20107686       -7.83670591
377	      1       -1.58984186       -7.16876378        6.44784559
378	      1        9.07112063        8.24578878       -7.58585327
379	      1        3.95340178        7.34156121       13.61440155
380	      1       -0.64782371       12.89951382        9.43341632
381	      1       -2.93438615       -7.60345000       -9.13773970
382	      1       12.68647290       -5.35409492        9.41789191
383	      1       13.04777053       -3.90203482       -6.42258027
384	      1       -3.73318493       10.56282256        9.82657923
385	      1      -10.55609757       12.24123838       -6.46404584
386	      1      -13.37906753       -6.99137653      -11.60648610
387	      1        5.84593794       -7.96723947        6.12704304
388	      1       -0.73498816       -8.03846827        0.77926539
389	      1        4.34980340       -9.89610142       -7.91726723
390	      1        0.92330160       10.65671167      -10.22489403
391	      1       11.10336325       -5.44773291        1.61896446
392	      1        1.37559600      -10.05603804       -4.30434513
393	      1        3.87624848       -0.40656466        7.05871917
394	      1       -0.88123208       -6.22570935      -12.34663089
395	      1        7.37412146        0.53620889      -13.43992429
396	      1        4.65095031       -0.50927569        2.94854797
397	      1        5.46727138        3.60286143       13.14830653
398	      1        5.63858739      -12.35317816        7.30431020
399	      1        6.25637452        0.19971897       -6.83642697
400	      1       -0.54733860       -9.73745125      -10.95055068
401	      1        8.95842191       -9.26604379       10.89625433
402	      1        7.94979738        1.36465777       10.23756531
403	      1        1.59891431        4.03241346       12.89970107
404	      1        5.70786876        3.35384244        4.09916156
405	      1        7.47146351        8.31287304       12.83371723
406	      1        1.06741858        7.53361250        8.67727973
407	      1        2.14897500        8.62501929      -11.08684500
408	      1       -2.80210918        2.72673601       10.64453020
409	      1       -8.53784703       -0.95677917       10.16059446
410	      1       -9.06410355        2.68579892       10.41518127
411	      1        7.60269570        5.44302598       -9.62311012
412	      1       -9.26630990      -10.33058414       -1.89116538
413	      1       11.90893134       10.80417466       -9.13715530
414	      1        5.80845037       -2.69906766        0.06361944
415	      1      -13.13367145       -6.29263943       -3.84985460
416	      1        3.04022631      -12.03847591       12.57860569
417	      1       12.34179342      -13.42260000       -0.52004979
418	      1       -5.47208963       -0.30710053       11.00630087
419	      1       -4.29412572        0.32164578       13.01616287
420	      1       10.67614301       -1.16089011       12.65468353
421	      1        6.66158246       10.48279300       -5.74523665
422	      1        0.59209914       12.38625564        4.10048920
423	      1        7.70551305        9.83046010        3.75418872
424	      1       -8.09522343       -4.62717229        8.79052801
425	      1       -6.95066283        8.51526716       10.71560690
426	      1       -5.16853681       -3.60000279        1.06051546
427	      1      -10.38247530       -6.83902412       -1.67580105
428	      1       12.71231470       -9.19420227       11.17306897
429	      1        3.38191664       -2.52609848      -12.97763492
430	      1        5.78495304       12.97962986        3.98770257
431	      1        7.33188709       13.02999964       -0.72111660
432	      1       -3.08019476       -4.96426157      -12.88601394
433	      1       -4.91208865       -5.14683362       11.21211251
434	      1        3.56053891        3.81773944       -3.29617767
435	      1        0.70450599       -4.77053726      -11.25209388
436	      1       -6.49794259       -1.84607701        6.94670382
437	      1        8.43847965       -2.70028790        9.41899943
438	      1      -11.77493857       -3.86912317        8.78532481
439	      1       13.03813840       -2.37455948        1.08089474
440	      1       -6.96079560       13.13361233      -10.87465215
441	      1        4.41489442        9.10508556      -10.80501800
442	      1      -10.51214510       -2.50882781        7.37427768
443	      1      -10.43479684      -11.90740754        8.77586352
444	      1       10.15345461        5.02118009        0.82201588
445	      1      -12.36421889      -12.72836989       11.99126207
446	      1       11.04263823        9.12614259       12.65511982
447	      1        4.46951304       -5.32860328        3.72486875
448	      1        4.94386566        7.09003983        6.04548210
449	      1       -2.87690675       -8.73149367       -2.86851310
450	      1        6.57906236       -0.31637293        4.36057650
451	      1        9.40992035       -0.19421213       -9.96915397
452	      1       -0.02910765       -0.99463905        4.07836235