# min 0000

 343 atoms
 1 atom types

 0.0 19.2088 xlo xhi
 0.0 19.0118 ylo yhi
 0.0 30.0000 zlo zhi
 0.0 0.0 0.0 xy xz yz

 Masses

 1 1.0

 Atoms

1 1 7.49396 7.42607 14.5756 
2 1 7.48477 12.3765 14.575 
3 1 10.3428 7.42607 14.5756 
4 1 10.352 12.3765 14.575 
5 1 11.7763 9.90909 14.5757 
6 1 6.06044 9.90908 14.5757 
7 1 8.91839 9.90396 14.5865 
8 1 0.68603 0.39608 1.12028 
9 1 2.05809 2.77256 1.12028 
10 1 0.68603 3.56472 3.36085 
11 1 2.05809 1.18824 3.36085 
12 1 0.68603 1.9804 5.60141 
13 1 2.05809 4.35688 5.60141 
14 1 0.687281 0.394216 7.84482 
15 1 2.05942 2.77012 7.84557 
16 1 0.68663 3.56098 10.0901 
17 1 2.06179 1.18426 10.0922 
18 1 0.687619 1.97364 12.3719 
19 1 2.0591 4.35575 12.3741 
20 1 0.68603 5.14903 1.12028 
21 1 2.05809 7.52551 1.12028 
22 1 0.68603 8.31767 3.36085 
23 1 2.05809 5.94119 3.36085 
24 1 0.68603 6.73335 5.60141 
25 1 2.05809 9.10983 5.60141 
26 1 0.684331 5.14681 7.84476 
27 1 2.053 7.52288 7.84294 
28 1 0.686157 8.32146 10.0964 
29 1 2.05443 5.93916 10.0936 
30 1 0.686507 6.73423 12.3752 
31 1 2.07103 9.10727 12.3854 
32 1 0.68603 9.90199 1.12028 
33 1 2.05809 12.2785 1.12028 
34 1 0.68603 13.0706 3.36085 
35 1 2.05809 10.6941 3.36085 
36 1 0.68603 11.4863 5.60141 
37 1 2.05809 13.8628 5.60141 
38 1 0.686813 9.90504 7.85119 
39 1 2.06138 12.279 7.85449 
40 1 0.69064 13.0707 10.0964 
41 1 2.06836 10.6955 10.1099 
42 1 0.699575 11.4821 12.3825 
43 1 2.08161 13.8455 12.3852 
44 1 0.68603 14.6549 1.12028 
45 1 2.05809 17.0314 1.12028 
46 1 0.68603 17.8236 3.36085 
47 1 2.05809 15.4471 3.36085 
48 1 0.68603 16.2393 5.60141 
49 1 2.05809 18.6157 5.60141 
50 1 0.687252 14.6548 7.84545 
51 1 2.06002 17.0294 7.84585 
52 1 0.688232 17.8188 10.0908 
53 1 2.06324 15.4411 10.0954 
54 1 0.692075 16.2253 12.3731 
55 1 2.06369 18.6062 12.3739 
56 1 3.43015 0.39608 1.12028 
57 1 4.80221 2.77256 1.12028 
58 1 3.43015 3.56472 3.36085 
59 1 4.80221 1.18824 3.36085 
60 1 3.43015 1.9804 5.60141 
61 1 4.80221 4.35688 5.60141 
62 1 3.43297 0.394442 7.84675 
63 1 4.80503 2.77351 7.84996 
64 1 3.4329 3.56413 10.0947 
65 1 4.80771 1.19012 10.0955 
66 1 3.43526 1.98166 12.376 
67 1 4.80631 4.37232 12.3841 
68 1 3.43015 5.14903 1.12028 
69 1 4.80221 7.52551 1.12028 
70 1 3.43015 8.31767 3.36085 
71 1 4.80221 5.94119 3.36085 
72 1 3.43015 6.73335 5.60141 
73 1 4.80221 9.10983 5.60141 
74 1 3.42517 5.14651 7.84248 
75 1 4.79732 7.52352 7.83486 
76 1 3.42348 8.30971 10.0786 
77 1 4.79124 5.94148 10.0781 
78 1 3.43197 6.73543 12.3851 
79 1 4.81167 9.08922 12.2988 
80 1 3.43015 9.90199 1.12028 
81 1 4.80221 12.2785 1.12028 
82 1 3.43015 13.0706 3.36085 
83 1 4.80221 10.6941 3.36085 
84 1 3.43015 11.4863 5.60141 
85 1 4.80221 13.8628 5.60141 
86 1 3.42549 9.90043 7.84205 
87 1 4.79941 12.2801 7.84192 
88 1 3.4443 13.063 10.1206 
89 1 4.79986 10.6915 10.0713 
90 1 3.47842 11.4613 12.4302 
91 1 4.84975 13.8336 12.4297 
92 1 3.43015 14.6549 1.12028 
93 1 4.80221 17.0314 1.12028 
94 1 3.43015 17.8236 3.36085 
95 1 4.80221 15.4471 3.36085 
96 1 3.43015 16.2393 5.60141 
97 1 4.80221 18.6157 5.60141 
98 1 3.43304 14.6518 7.85396 
99 1 4.80393 17.0286 7.84959 
100 1 3.43495 17.8177 10.0947 
101 1 4.81056 15.4369 10.1083 
102 1 3.44502 16.2226 12.3805 
103 1 4.80909 18.6159 12.3765 
104 1 6.17427 0.39608 1.12028 
105 1 7.54633 2.77256 1.12028 
106 1 6.17427 3.56472 3.36085 
107 1 7.54633 1.18824 3.36085 
108 1 6.17427 1.9804 5.60141 
109 1 7.54633 4.35688 5.60141 
110 1 6.17572 0.397465 7.8467 
111 1 7.54789 2.77722 7.85399 
112 1 6.18017 3.5764 10.1086 
113 1 7.54886 1.19606 10.0959 
114 1 6.18173 2.00092 12.3812 
115 1 7.54901 4.41504 12.4297 
116 1 6.17427 5.14903 1.12028 
117 1 7.54633 7.52551 1.12028 
118 1 6.17427 8.31767 3.36085 
119 1 7.54633 5.94119 3.36085 
120 1 6.17427 6.73335 5.60141 
121 1 7.54633 9.10983 5.60141 
122 1 6.17034 5.14757 7.84163 
123 1 7.54519 7.52271 7.82792 
124 1 6.17813 8.32107 10.0502 
125 1 7.54251 5.94265 10.071 
126 1 6.16013 6.75459 12.2985 
127 1 7.55544 9.11682 12.2984 
128 1 6.17427 9.90199 1.12028 
129 1 7.54633 12.2785 1.12028 
130 1 6.17427 13.0706 3.36085 
131 1 7.54633 10.6941 3.36085 
132 1 6.17427 11.4863 5.60141 
133 1 7.54633 13.8628 5.60141 
134 1 6.17042 9.90322 7.82795 
135 1 7.54384 12.2809 7.82773 
136 1 6.17674 13.074 10.0708 
137 1 7.54988 10.6925 10.0475 
138 1 6.20307 11.471 12.2822 
139 1 7.57071 13.8682 12.2981 
140 1 6.17427 14.6549 1.12028 
141 1 7.54633 17.0314 1.12028 
142 1 6.17427 17.8236 3.36085 
143 1 7.54633 15.4471 3.36085 
144 1 6.17427 16.2393 5.60141 
145 1 7.54633 18.6157 5.60141 
146 1 6.1749 14.659 7.84124 
147 1 7.54752 17.0371 7.84188 
148 1 6.17677 17.8236 10.0947 
149 1 7.55209 15.4574 10.0772 
150 1 6.18713 16.2332 12.3835 
151 1 7.54929 18.6286 12.3755 
152 1 8.91839 0.39608 1.12028 
153 1 10.2904 2.77256 1.12028 
154 1 8.91839 3.56472 3.36085 
155 1 10.2904 1.18824 3.36085 
156 1 8.91839 1.9804 5.60141 
157 1 10.2904 4.35688 5.60141 
158 1 8.91838 0.400556 7.84566 
159 1 10.2889 2.77722 7.85399 
160 1 8.91839 3.58261 10.1201 
161 1 10.2879 1.19606 10.0959 
162 1 8.91839 2.01343 12.385 
163 1 10.2878 4.41504 12.4297 
164 1 8.91839 5.14903 1.12028 
165 1 10.2904 7.52551 1.12028 
166 1 8.91839 8.31767 3.36085 
167 1 10.2904 5.94119 3.36085 
168 1 8.91839 6.73335 5.60141 
169 1 10.2904 9.10983 5.60141 
170 1 8.91838 5.14689 7.84184 
171 1 10.2916 7.52271 7.82792 
172 1 8.91839 8.32287 10.0476 
173 1 10.2943 5.94265 10.071 
174 1 8.91839 6.76882 12.2823 
175 1 10.2813 9.11682 12.2984 
176 1 8.91839 9.90199 1.12028 
177 1 10.2904 12.2785 1.12028 
178 1 8.91839 13.0706 3.36085 
179 1 10.2904 10.6941 3.36085 
180 1 8.91839 11.4863 5.60141 
181 1 10.2904 13.8628 5.60141 
182 1 8.91838 9.90225 7.82231 
183 1 10.2929 12.2809 7.82773 
184 1 8.91839 13.0661 10.0498 
185 1 10.2869 10.6925 10.0475 
186 1 8.91839 11.4776 12.2981 
187 1 10.2661 13.8682 12.2981 
188 1 8.91839 14.6549 1.12028 
189 1 10.2904 17.0314 1.12028 
190 1 8.91839 17.8236 3.36085 
191 1 10.2904 15.4471 3.36085 
192 1 8.91839 16.2393 5.60141 
193 1 10.2904 18.6157 5.60141 
194 1 8.91838 14.6597 7.83416 
195 1 10.2892 17.0371 7.84188 
196 1 8.91839 17.8305 10.0931 
197 1 10.2847 15.4574 10.0772 
198 1 8.91839 16.2436 12.3836 
199 1 10.2875 18.6286 12.3755 
200 1 11.6625 0.39608 1.12028 
201 1 13.0346 2.77256 1.12028 
202 1 11.6625 3.56472 3.36085 
203 1 13.0346 1.18824 3.36085 
204 1 11.6625 1.9804 5.60141 
205 1 13.0346 4.35688 5.60141 
206 1 11.661 0.39746 7.84669 
207 1 13.0317 2.77351 7.84996 
208 1 11.6566 3.5764 10.1086 
209 1 13.0291 1.19012 10.0955 
210 1 11.655 2.00092 12.3812 
211 1 13.0305 4.37232 12.3841 
212 1 11.6625 5.14903 1.12028 
213 1 13.0346 7.52551 1.12028 
214 1 11.6625 8.31767 3.36085 
215 1 13.0346 5.94119 3.36085 
216 1 11.6625 6.73335 5.60141 
217 1 13.0346 9.10983 5.60141 
218 1 11.6664 5.14756 7.84162 
219 1 13.0395 7.52352 7.83486 
220 1 11.6586 8.32107 10.0502 
221 1 13.0455 5.94148 10.0781 
222 1 11.6766 6.75459 12.2985 
223 1 13.0251 9.08922 12.2988 
224 1 11.6625 9.90199 1.12028 
225 1 13.0346 12.2785 1.12028 
226 1 11.6625 13.0706 3.36085 
227 1 13.0346 10.6941 3.36085 
228 1 11.6625 11.4863 5.60141 
229 1 13.0346 13.8628 5.60141 
230 1 11.6664 9.90322 7.82794 
231 1 13.0374 12.2801 7.84192 
232 1 11.66 13.074 10.0708 
233 1 13.0369 10.6915 10.0712 
234 1 11.6337 11.471 12.2822 
235 1 12.987 13.8336 12.4297 
236 1 11.6625 14.6549 1.12028 
237 1 13.0346 17.0314 1.12028 
238 1 11.6625 17.8236 3.36085 
239 1 13.0346 15.4471 3.36085 
240 1 11.6625 16.2393 5.60141 
241 1 13.0346 18.6157 5.60141 
242 1 11.6619 14.659 7.84122 
243 1 13.0328 17.0286 7.84959 
244 1 11.66 17.8236 10.0947 
245 1 13.0262 15.4369 10.1083 
246 1 11.6496 16.2332 12.3835 
247 1 13.0277 18.6159 12.3765 
248 1 14.4066 0.39608 1.12028 
249 1 15.7787 2.77256 1.12028 
250 1 14.4066 3.56472 3.36085 
251 1 15.7787 1.18824 3.36085 
252 1 14.4066 1.9804 5.60141 
253 1 15.7787 4.35688 5.60141 
254 1 14.4038 0.394444 7.84675 
255 1 15.7773 2.77012 7.84557 
256 1 14.4039 3.56413 10.0947 
257 1 15.775 1.18426 10.0922 
258 1 14.4015 1.98166 12.376 
259 1 15.7777 4.35575 12.3741 
260 1 14.4066 5.14903 1.12028 
261 1 15.7787 7.52551 1.12028 
262 1 14.4066 8.31767 3.36085 
263 1 15.7787 5.94119 3.36085 
264 1 14.4066 6.73335 5.60141 
265 1 15.7787 9.10983 5.60141 
266 1 14.4116 5.14651 7.84248 
267 1 15.7838 7.52288 7.84294 
268 1 14.4133 8.30971 10.0786 
269 1 15.7823 5.93916 10.0936 
270 1 14.4048 6.73543 12.3851 
271 1 15.7657 9.10727 12.3854 
272 1 14.4066 9.90199 1.12028 
273 1 15.7787 12.2785 1.12028 
274 1 14.4066 13.0706 3.36085 
275 1 15.7787 10.6941 3.36085 
276 1 14.4066 11.4863 5.60141 
277 1 15.7787 13.8628 5.60141 
278 1 14.4113 9.90043 7.84206 
279 1 15.7754 12.279 7.8545 
280 1 14.3925 13.063 10.1206 
281 1 15.7684 10.6955 10.1099 
282 1 14.3583 11.4613 12.4302 
283 1 15.7552 13.8455 12.3852 
284 1 14.4066 14.6549 1.12028 
285 1 15.7787 17.0314 1.12028 
286 1 14.4066 17.8236 3.36085 
287 1 15.7787 15.4471 3.36085 
288 1 14.4066 16.2393 5.60141 
289 1 15.7787 18.6157 5.60141 
290 1 14.4037 14.6518 7.85396 
291 1 15.7767 17.0294 7.84585 
292 1 14.4018 17.8177 10.0947 
293 1 15.7735 15.4411 10.0954 
294 1 14.3918 16.2226 12.3805 
295 1 15.7731 18.6062 12.3739 
296 1 17.1507 0.39608 1.12028 
297 1 18.5228 2.77256 1.12028 
298 1 17.1507 3.56472 3.36085 
299 1 18.5228 1.18824 3.36085 
300 1 17.1507 1.9804 5.60141 
301 1 18.5228 4.35688 5.60141 
302 1 17.1495 0.394216 7.84482 
303 1 18.5228 2.7698 7.84414 
304 1 17.1501 3.56098 10.0901 
305 1 18.5228 1.18336 10.0901 
306 1 17.1492 1.97364 12.3719 
307 1 18.5228 4.35382 12.3708 
308 1 17.1507 5.14903 1.12028 
309 1 18.5228 7.52551 1.12028 
310 1 17.1507 8.31767 3.36085 
311 1 18.5228 5.94119 3.36085 
312 1 17.1507 6.73335 5.60141 
313 1 18.5228 9.10983 5.60141 
314 1 17.1524 5.14681 7.84476 
315 1 18.5228 7.52718 7.84678 
316 1 17.1506 8.32146 10.0964 
317 1 18.5228 5.9415 10.0911 
318 1 17.1503 6.73423 12.3752 
319 1 18.5228 9.1123 12.3792 
320 1 17.1507 9.90199 1.12028 
321 1 18.5228 12.2785 1.12028 
322 1 17.1507 13.0706 3.36085 
323 1 18.5228 10.6941 3.36085 
324 1 17.1507 11.4863 5.60141 
325 1 18.5228 13.8628 5.60141 
326 1 17.15 9.90504 7.85119 
327 1 18.5228 12.2806 7.84735 
328 1 17.1461 13.0707 10.0964 
329 1 18.5228 10.6993 10.0986 
330 1 17.1372 11.4821 12.3825 
331 1 18.5228 13.8526 12.3748 
332 1 17.1507 14.6549 1.12028 
333 1 18.5228 17.0314 1.12028 
334 1 17.1507 17.8236 3.36085 
335 1 18.5228 15.4471 3.36085 
336 1 17.1507 16.2393 5.60141 
337 1 18.5228 18.6157 5.60141 
338 1 17.1495 14.6548 7.84545 
339 1 18.5228 17.0307 7.84435 
340 1 17.1485 17.8188 10.0908 
341 1 18.5228 15.4443 10.0906 
342 1 17.1447 16.2253 12.3731 
343 1 18.5228 18.6044 12.3717 
