         343
Lattice="    19.2088     0.0000     0.0000     0.0000    19.0118     0.0000     0.0000     0.0000    30.0000 " properties=species:S:1:pos:R:3:force:R:3:id:I:1 energy:-1770.371797348
 1       6.335583719    8.911382795   14.600815531    0.000096484   -0.000273992    0.000018195 1
 1       7.385910506   12.072500190   14.580771049    0.000022746    0.000202646   -0.000051709 2
 1      10.407713762    7.398145701   14.594157346   -0.000098752    0.000112748    0.000007597 3
 1      10.268823873   12.346567581   14.569678567    0.000021069    0.000045621    0.000002329 4
 1      11.817609639    9.926546866   14.569407358   -0.000045025    0.000063128    0.000038959 5
 1       4.685226339   11.213623123   14.546015900    0.000190889   -0.000133749   -0.000028147 6
 1       8.979048919    9.801253207   14.548118087    0.000034612    0.000178605   -0.000010713 7
 1       0.686030000    0.396080000    1.120280000    0.000000000    0.000000000    0.000000000 8
 1       2.058090000    2.772560000    1.120280000    0.000000000    0.000000000    0.000000000 9
 1       0.686030000    3.564720000    3.360850000    0.000000000    0.000000000    0.000000000 10
 1       2.058090000    1.188240000    3.360850000    0.000000000    0.000000000    0.000000000 11
 1       0.686030000    1.980400000    5.601410000    0.000000000    0.000000000    0.000000000 12
 1       2.058090000    4.356880000    5.601410000    0.000000000    0.000000000    0.000000000 13
 1       0.687858975    0.396412252    7.844765941   -0.000007997    0.000001176    0.000000485 14
 1       2.062724211    2.772153891    7.846371660   -0.000001031    0.000015873   -0.000010861 15
 1       0.694399415    3.564448304   10.092529657   -0.000004719   -0.000000510   -0.000013348 16
 1       2.064831601    1.185532406   10.092258007   -0.000007743   -0.000036661    0.000001990 17
 1       0.694458440    1.977322130   12.372765507    0.000018520   -0.000001172   -0.000015955 18
 1       2.070691878    4.365825356   12.378085601   -0.000014516    0.000012661    0.000013579 19
 1       0.686030000    5.149030000    1.120280000    0.000000000    0.000000000    0.000000000 20
 1       2.058090000    7.525510000    1.120280000    0.000000000    0.000000000    0.000000000 21
 1       0.686030000    8.317670000    3.360850000    0.000000000    0.000000000    0.000000000 22
 1       2.058090000    5.941190000    3.360850000    0.000000000    0.000000000    0.000000000 23
 1       0.686030000    6.733350000    5.601410000    0.000000000    0.000000000    0.000000000 24
 1       2.058090000    9.109830000    5.601410000    0.000000000    0.000000000    0.000000000 25
 1       0.690148713    5.148691832    7.847153506    0.000018607   -0.000016213   -0.000002075 26
 1       2.053473789    7.525410065    7.848451709    0.000010846    0.000018537   -0.000004464 27
 1       0.682215025    8.319753472   10.099818842    0.000019185    0.000007681   -0.000011626 28
 1       2.066369734    5.945740145   10.101682631    0.000013341    0.000010092    0.000010549 29
 1       0.695747705    6.740567906   12.379486169   -0.000012848    0.000010489   -0.000011474 30
 1       2.064749719    9.126277011   12.401379442   -0.000008674    0.000032253    0.000008468 31
 1       0.686030000    9.901990000    1.120280000    0.000000000    0.000000000    0.000000000 32
 1       2.058090000   12.278500000    1.120280000    0.000000000    0.000000000    0.000000000 33
 1       0.686030000   13.070600000    3.360850000    0.000000000    0.000000000    0.000000000 34
 1       2.058090000   10.694100000    3.360850000    0.000000000    0.000000000    0.000000000 35
 1       0.686030000   11.486300000    5.601410000    0.000000000    0.000000000    0.000000000 36
 1       2.058090000   13.862800000    5.601410000    0.000000000    0.000000000    0.000000000 37
 1       0.674584006    9.899551164    7.838208633    0.000033039   -0.000026838    0.000000935 38
 1       2.058963214   12.281605250    7.840012242    0.000002088    0.000023803    0.000004126 39
 1       0.691737063   13.069921509   10.096558980   -0.000051631    0.000025017   -0.000022470 40
 1       2.035746921   10.685380901   10.056162472   -0.000008531   -0.000013259   -0.000008300 41
 1       0.679084576   11.484683695   12.377043808   -0.000070438    0.000016186   -0.000002224 42
 1       2.075275213   13.849466217   12.385953354   -0.000026400    0.000016294    0.000011280 43
 1       0.686030000   14.654900000    1.120280000    0.000000000    0.000000000    0.000000000 44
 1       2.058090000   17.031400000    1.120280000    0.000000000    0.000000000    0.000000000 45
 1       0.686030000   17.823600000    3.360850000    0.000000000    0.000000000    0.000000000 46
 1       2.058090000   15.447100000    3.360850000    0.000000000    0.000000000    0.000000000 47
 1       0.686030000   16.239300000    5.601410000    0.000000000    0.000000000    0.000000000 48
 1       2.058090000   18.615700000    5.601410000    0.000000000    0.000000000    0.000000000 49
 1       0.687180557   14.655307630    7.846276578   -0.000018097   -0.000037986    0.000009266 50
 1       2.058168018   17.032706819    7.845484216    0.000008720    0.000025484    0.000011173 51
 1       0.687020757   17.822404199   10.090986696   -0.000012688   -0.000004849   -0.000005183 52
 1       2.057987090   15.447480306   10.095046895   -0.000044809   -0.000000660    0.000029051 53
 1       0.690855856   16.228888291   12.374000823   -0.000011440   -0.000028848   -0.000001601 54
 1       2.067385806   18.604827614   12.374030061   -0.000011971    0.000009625   -0.000004868 55
 1       3.430150000    0.396080000    1.120280000    0.000000000    0.000000000    0.000000000 56
 1       4.802210000    2.772560000    1.120280000    0.000000000    0.000000000    0.000000000 57
 1       3.430150000    3.564720000    3.360850000    0.000000000    0.000000000    0.000000000 58
 1       4.802210000    1.188240000    3.360850000    0.000000000    0.000000000    0.000000000 59
 1       3.430150000    1.980400000    5.601410000    0.000000000    0.000000000    0.000000000 60
 1       4.802210000    4.356880000    5.601410000    0.000000000    0.000000000    0.000000000 61
 1       3.433042044    0.393761833    7.846630276   -0.000017034   -0.000037202   -0.000000403 62
 1       4.805594412    2.771154133    7.848109341   -0.000003241    0.000007899    0.000017534 63
 1       3.440132454    3.567363379   10.097175140    0.000051889    0.000001065   -0.000001890 64
 1       4.808277991    1.183655262   10.095183782   -0.000005273   -0.000012287    0.000011255 65
 1       3.440391799    1.983733957   12.375576561   -0.000018028   -0.000001225    0.000001322 66
 1       4.814881511    4.384339599   12.388287635   -0.000024870    0.000024148    0.000006603 67
 1       3.430150000    5.149030000    1.120280000    0.000000000    0.000000000    0.000000000 68
 1       4.802210000    7.525510000    1.120280000    0.000000000    0.000000000    0.000000000 69
 1       3.430150000    8.317670000    3.360850000    0.000000000    0.000000000    0.000000000 70
 1       4.802210000    5.941190000    3.360850000    0.000000000    0.000000000    0.000000000 71
 1       3.430150000    6.733350000    5.601410000    0.000000000    0.000000000    0.000000000 72
 1       4.802210000    9.109830000    5.601410000    0.000000000    0.000000000    0.000000000 73
 1       3.433049361    5.150355435    7.852556399    0.000031677   -0.000017510    0.000009939 74
 1       4.795592477    7.524261894    7.848736752    0.000001448    0.000027396   -0.000022365 75
 1       3.419758247    8.324580549   10.096021293   -0.000091522    0.000046412    0.000008372 76
 1       4.807183426    5.955675512   10.118512493   -0.000016579   -0.000023415    0.000045558 77
 1       3.446486933    6.762977317   12.405413780   -0.000028945    0.000031096    0.000029460 78
 1       4.792786209    9.148486375   12.334915200    0.000014087   -0.000000439    0.000006823 79
 1       3.430150000    9.901990000    1.120280000    0.000000000    0.000000000    0.000000000 80
 1       4.802210000   12.278500000    1.120280000    0.000000000    0.000000000    0.000000000 81
 1       3.430150000   13.070600000    3.360850000    0.000000000    0.000000000    0.000000000 82
 1       4.802210000   10.694100000    3.360850000    0.000000000    0.000000000    0.000000000 83
 1       3.430150000   11.486300000    5.601410000    0.000000000    0.000000000    0.000000000 84
 1       4.802210000   13.862800000    5.601410000    0.000000000    0.000000000    0.000000000 85
 1       3.421951940    9.897690195    7.828874332   -0.000037807   -0.000009846   -0.000008907 86
 1       4.803396831   12.283534241    7.832609274   -0.000007053    0.000059672    0.000022711 87
 1       3.439939075   13.088521477   10.073809870    0.000056761    0.000010158   -0.000007735 88
 1       4.800546582   10.687190634   10.027656371   -0.000027047    0.000012204    0.000033170 89
 1       3.403881216   11.483134662   12.218283392    0.000041976   -0.000033973    0.000054901 90
 1       4.835723921   13.780064574   12.476376789    0.000001807    0.000050065   -0.000000768 91
 1       3.430150000   14.654900000    1.120280000    0.000000000    0.000000000    0.000000000 92
 1       4.802210000   17.031400000    1.120280000    0.000000000    0.000000000    0.000000000 93
 1       3.430150000   17.823600000    3.360850000    0.000000000    0.000000000    0.000000000 94
 1       4.802210000   15.447100000    3.360850000    0.000000000    0.000000000    0.000000000 95
 1       3.430150000   16.239300000    5.601410000    0.000000000    0.000000000    0.000000000 96
 1       4.802210000   18.615700000    5.601410000    0.000000000    0.000000000    0.000000000 97
 1       3.432476619   14.662639848    7.844320604    0.000019918   -0.000029197    0.000023146 98
 1       4.804074628   17.028755484    7.852948064   -0.000009571    0.000034309   -0.000009199 99
 1       3.434272782   17.814805009   10.096769872   -0.000045435   -0.000002142   -0.000006913 100
 1       4.807556725   15.432788671   10.121658245    0.000003899   -0.000001539    0.000024086 101
 1       3.446157340   16.208950843   12.387240031   -0.000025727    0.000015101    0.000033247 102
 1       4.809490759   18.604405277   12.378734952   -0.000017336    0.000033884    0.000020152 103
 1       6.174270000    0.396080000    1.120280000    0.000000000    0.000000000    0.000000000 104
 1       7.546330000    2.772560000    1.120280000    0.000000000    0.000000000    0.000000000 105
 1       6.174270000    3.564720000    3.360850000    0.000000000    0.000000000    0.000000000 106
 1       7.546330000    1.188240000    3.360850000    0.000000000    0.000000000    0.000000000 107
 1       6.174270000    1.980400000    5.601410000    0.000000000    0.000000000    0.000000000 108
 1       7.546330000    4.356880000    5.601410000    0.000000000    0.000000000    0.000000000 109
 1       6.176511404    0.393188539    7.848200910    0.000017299   -0.000026468   -0.000000723 110
 1       7.547296721    2.773835464    7.850834751   -0.000008259    0.000013225   -0.000021635 111
 1       6.178880520    3.570787494   10.101641361   -0.000070427    0.000042799    0.000027363 112
 1       7.548587571    1.188725115   10.096271552   -0.000020261   -0.000035622    0.000007845 113
 1       6.179654220    1.993113275   12.378559611   -0.000042092    0.000040649    0.000013662 114
 1       7.547673886    4.399504891   12.397812994    0.000008754    0.000007728    0.000025360 115
 1       6.174270000    5.149030000    1.120280000    0.000000000    0.000000000    0.000000000 116
 1       7.546330000    7.525510000    1.120280000    0.000000000    0.000000000    0.000000000 117
 1       6.174270000    8.317670000    3.360850000    0.000000000    0.000000000    0.000000000 118
 1       7.546330000    5.941190000    3.360850000    0.000000000    0.000000000    0.000000000 119
 1       6.174270000    6.733350000    5.601410000    0.000000000    0.000000000    0.000000000 120
 1       7.546330000    9.109830000    5.601410000    0.000000000    0.000000000    0.000000000 121
 1       6.171265768    5.151027744    7.854392171   -0.000034492   -0.000007661    0.000012110 122
 1       7.541298430    7.522250626    7.839178150   -0.000015165    0.000027784    0.000032557 123
 1       6.167425365    8.321077944   10.080836224    0.000076620    0.000022554    0.000029319 124
 1       7.536591388    5.957827588   10.111454534    0.000011990   -0.000007121    0.000019282 125
 1       6.184936096    6.801724836   12.444128329    0.000015919   -0.000065394   -0.000010044 126
 1       7.590508607    9.137381144   12.236032801    0.000017391    0.000059768   -0.000053131 127
 1       6.174270000    9.901990000    1.120280000    0.000000000    0.000000000    0.000000000 128
 1       7.546330000   12.278500000    1.120280000    0.000000000    0.000000000    0.000000000 129
 1       6.174270000   13.070600000    3.360850000    0.000000000    0.000000000    0.000000000 130
 1       7.546330000   10.694100000    3.360850000    0.000000000    0.000000000    0.000000000 131
 1       6.174270000   11.486300000    5.601410000    0.000000000    0.000000000    0.000000000 132
 1       7.546330000   13.862800000    5.601410000    0.000000000    0.000000000    0.000000000 133
 1       6.172964145    9.894840835    7.819919027    0.000031472   -0.000033570    0.000026218 134
 1       7.541404806   12.285769704    7.827320472   -0.000026179    0.000028553   -0.000035448 135
 1       6.171837505   13.075169524   10.091938331   -0.000082587    0.000074121   -0.000032275 136
 1       7.555778832   10.694704058   10.014761441    0.000011874   -0.000043116    0.000106084 137
 1       6.194661050   11.425828739   12.239620746   -0.000059447    0.000029804   -0.000043367 138
 1       7.562281074   13.821642011   12.386080149   -0.000003123    0.000046202   -0.000105610 139
 1       6.174270000   14.654900000    1.120280000    0.000000000    0.000000000    0.000000000 140
 1       7.546330000   17.031400000    1.120280000    0.000000000    0.000000000    0.000000000 141
 1       6.174270000   17.823600000    3.360850000    0.000000000    0.000000000    0.000000000 142
 1       7.546330000   15.447100000    3.360850000    0.000000000    0.000000000    0.000000000 143
 1       6.174270000   16.239300000    5.601410000    0.000000000    0.000000000    0.000000000 144
 1       7.546330000   18.615700000    5.601410000    0.000000000    0.000000000    0.000000000 145
 1       6.173755423   14.659680559    7.851347867   -0.000018974   -0.000022590   -0.000001610 146
 1       7.547868714   17.031225352    7.849095281    0.000006942    0.000038435   -0.000008048 147
 1       6.177517432   17.812481649   10.101075507    0.000012250    0.000022547   -0.000003977 148
 1       7.551554863   15.440370998   10.104197853    0.000001021    0.000018351   -0.000001579 149
 1       6.180320864   16.202706613   12.397000721    0.000015752    0.000027734    0.000029965 150
 1       7.545353690   18.613805447   12.378822450   -0.000033953    0.000047933   -0.000019290 151
 1       8.918390000    0.396080000    1.120280000    0.000000000    0.000000000    0.000000000 152
 1      10.290400000    2.772560000    1.120280000    0.000000000    0.000000000    0.000000000 153
 1       8.918390000    3.564720000    3.360850000    0.000000000    0.000000000    0.000000000 154
 1      10.290400000    1.188240000    3.360850000    0.000000000    0.000000000    0.000000000 155
 1       8.918390000    1.980400000    5.601410000    0.000000000    0.000000000    0.000000000 156
 1      10.290400000    4.356880000    5.601410000    0.000000000    0.000000000    0.000000000 157
 1       8.918674827    0.397468297    7.846246218   -0.000017574    0.000009113    0.000007036 158
 1      10.288453489    2.776484282    7.851665402   -0.000032291    0.000032491   -0.000007150 159
 1       8.917393951    3.577645965   10.110922787    0.000023978    0.000024476   -0.000010699 160
 1      10.288429131    1.192537431   10.094292265   -0.000017142   -0.000012916   -0.000005649 161
 1       8.917662814    2.003867385   12.380919612   -0.000039391   -0.000006779    0.000013905 162
 1      10.285580389    4.412618777   12.423472418   -0.000034718    0.000033884   -0.000011757 163
 1       8.918390000    5.149030000    1.120280000    0.000000000    0.000000000    0.000000000 164
 1      10.290400000    7.525510000    1.120280000    0.000000000    0.000000000    0.000000000 165
 1       8.918390000    8.317670000    3.360850000    0.000000000    0.000000000    0.000000000 166
 1      10.290400000    5.941190000    3.360850000    0.000000000    0.000000000    0.000000000 167
 1       8.918390000    6.733350000    5.601410000    0.000000000    0.000000000    0.000000000 168
 1      10.290400000    9.109830000    5.601410000    0.000000000    0.000000000    0.000000000 169
 1       8.912221361    5.150454603    7.851520907    0.000008034   -0.000026051    0.000012822 170
 1      10.293451836    7.519059182    7.824862773   -0.000010686    0.000020427   -0.000037248 171
 1       8.931530516    8.314673804   10.040658617   -0.000096555    0.000079531    0.000056354 172
 1      10.283042106    5.945559596   10.087596391   -0.000030182   -0.000079441    0.000043244 173
 1       8.906544871    6.789097463   12.361330082   -0.000030148    0.000041896    0.000035354 174
 1      10.322755944    9.111747209   12.270888243    0.000001148    0.000082569   -0.000014092 175
 1       8.918390000    9.901990000    1.120280000    0.000000000    0.000000000    0.000000000 176
 1      10.290400000   12.278500000    1.120280000    0.000000000    0.000000000    0.000000000 177
 1       8.918390000   13.070600000    3.360850000    0.000000000    0.000000000    0.000000000 178
 1      10.290400000   10.694100000    3.360850000    0.000000000    0.000000000    0.000000000 179
 1       8.918390000   11.486300000    5.601410000    0.000000000    0.000000000    0.000000000 180
 1      10.290400000   13.862800000    5.601410000    0.000000000    0.000000000    0.000000000 181
 1       8.922975233    9.899128395    7.814494687   -0.000039463   -0.000017078    0.000017303 182
 1      10.288576198   12.283405385    7.829794719   -0.000013142    0.000010270   -0.000041330 183
 1       8.910034719   13.069767166   10.063620451    0.000102174    0.000039031   -0.000014479 184
 1      10.291286972   10.692571413   10.038785248    0.000036649    0.000008297    0.000035422 185
 1       8.927534011   11.465664706   12.280274470    0.000026436    0.000005213    0.000007090 186
 1      10.268541281   13.865928750   12.299283514    0.000021238    0.000042791   -0.000062578 187
 1       8.918390000   14.654900000    1.120280000    0.000000000    0.000000000    0.000000000 188
 1      10.290400000   17.031400000    1.120280000    0.000000000    0.000000000    0.000000000 189
 1       8.918390000   17.823600000    3.360850000    0.000000000    0.000000000    0.000000000 190
 1      10.290400000   15.447100000    3.360850000    0.000000000    0.000000000    0.000000000 191
 1       8.918390000   16.239300000    5.601410000    0.000000000    0.000000000    0.000000000 192
 1      10.290400000   18.615700000    5.601410000    0.000000000    0.000000000    0.000000000 193
 1       8.916934250   14.660516309    7.839715815   -0.000015417   -0.000039225   -0.000010106 194
 1      10.290547884   17.036999055    7.841654236   -0.000005026    0.000017891   -0.000021456 195
 1       8.918075033   17.823035926   10.095837853   -0.000031454    0.000060889   -0.000004055 196
 1      10.286869998   15.457133064   10.077457593   -0.000027656   -0.000053763    0.000004308 197
 1       8.912491042   16.227813811   12.389337840   -0.000004484   -0.000000375    0.000003241 198
 1      10.284152421   18.621148772   12.375058016   -0.000039481    0.000036916   -0.000018012 199
 1      11.662500000    0.396080000    1.120280000    0.000000000    0.000000000    0.000000000 200
 1      13.034600000    2.772560000    1.120280000    0.000000000    0.000000000    0.000000000 201
 1      11.662500000    3.564720000    3.360850000    0.000000000    0.000000000    0.000000000 202
 1      13.034600000    1.188240000    3.360850000    0.000000000    0.000000000    0.000000000 203
 1      11.662500000    1.980400000    5.601410000    0.000000000    0.000000000    0.000000000 204
 1      13.034600000    4.356880000    5.601410000    0.000000000    0.000000000    0.000000000 205
 1      11.662280441    0.397767245    7.846044737    0.000005482   -0.000014394    0.000002787 206
 1      13.031888066    2.774494457    7.850071742    0.000004300    0.000012219   -0.000015503 207
 1      11.655357267    3.576201115   10.107909705   -0.000070489    0.000067357   -0.000001226 208
 1      13.030220137    1.190927292   10.095330497   -0.000011867   -0.000039666   -0.000005465 209
 1      11.653591471    1.997829740   12.380012452   -0.000048811    0.000010092    0.000002906 210
 1      13.032079006    4.368303277   12.383784425   -0.000036685    0.000009931   -0.000020918 211
 1      11.662500000    5.149030000    1.120280000    0.000000000    0.000000000    0.000000000 212
 1      13.034600000    7.525510000    1.120280000    0.000000000    0.000000000    0.000000000 213
 1      11.662500000    8.317670000    3.360850000    0.000000000    0.000000000    0.000000000 214
 1      13.034600000    5.941190000    3.360850000    0.000000000    0.000000000    0.000000000 215
 1      11.662500000    6.733350000    5.601410000    0.000000000    0.000000000    0.000000000 216
 1      13.034600000    9.109830000    5.601410000    0.000000000    0.000000000    0.000000000 217
 1      11.661705781    5.148046368    7.845402027   -0.000041353    0.000039724    0.000016990 218
 1      13.042833356    7.520654436    7.829128746   -0.000032139    0.000019903    0.000003978 219
 1      11.671542784    8.316162083   10.035139063    0.000096985    0.000030735    0.000015009 220
 1      13.047544790    5.936924633   10.073202546   -0.000019516   -0.000011263    0.000026207 221
 1      11.685083751    6.748286003   12.286148627   -0.000006659   -0.000025877    0.000040443 222
 1      13.040352826    9.085395831   12.290857381    0.000010154   -0.000008213    0.000000836 223
 1      11.662500000    9.901990000    1.120280000    0.000000000    0.000000000    0.000000000 224
 1      13.034600000   12.278500000    1.120280000    0.000000000    0.000000000    0.000000000 225
 1      11.662500000   13.070600000    3.360850000    0.000000000    0.000000000    0.000000000 226
 1      13.034600000   10.694100000    3.360850000    0.000000000    0.000000000    0.000000000 227
 1      11.662500000   11.486300000    5.601410000    0.000000000    0.000000000    0.000000000 228
 1      13.034600000   13.862800000    5.601410000    0.000000000    0.000000000    0.000000000 229
 1      11.667816784    9.903521107    7.824022680    0.000033450   -0.000061948   -0.000007001 230
 1      13.035891293   12.280286597    7.842122097    0.000014186   -0.000001373   -0.000063645 231
 1      11.657905916   13.074587879   10.069777497   -0.000054351    0.000027842   -0.000016883 232
 1      13.036147534   10.691586391   10.071907869   -0.000016911   -0.000114609    0.000021958 233
 1      11.637834334   11.477661737   12.285407566   -0.000010934    0.000017465   -0.000044043 234
 1      12.990397769   13.837731679   12.424870782   -0.000009713    0.000037819    0.000013591 235
 1      11.662500000   14.654900000    1.120280000    0.000000000    0.000000000    0.000000000 236
 1      13.034600000   17.031400000    1.120280000    0.000000000    0.000000000    0.000000000 237
 1      11.662500000   17.823600000    3.360850000    0.000000000    0.000000000    0.000000000 238
 1      13.034600000   15.447100000    3.360850000    0.000000000    0.000000000    0.000000000 239
 1      11.662500000   16.239300000    5.601410000    0.000000000    0.000000000    0.000000000 240
 1      13.034600000   18.615700000    5.601410000    0.000000000    0.000000000    0.000000000 241
 1      11.662070861   14.659402566    7.840441247   -0.000025956   -0.000005720   -0.000022932 242
 1      13.034116283   17.029127842    7.849161818   -0.000003629    0.000019703   -0.000008605 243
 1      11.661409127   17.823823772   10.093829310    0.000018490    0.000068196   -0.000003256 244
 1      13.027348023   15.437869416   10.106716445   -0.000002679   -0.000012518    0.000013131 245
 1      11.648404095   16.232973883   12.382201742   -0.000027687    0.000044812    0.000008370 246
 1      13.026631431   18.616180137   12.376230179   -0.000017093    0.000035179   -0.000009468 247
 1      14.406600000    0.396080000    1.120280000    0.000000000    0.000000000    0.000000000 248
 1      15.778700000    2.772560000    1.120280000    0.000000000    0.000000000    0.000000000 249
 1      14.406600000    3.564720000    3.360850000    0.000000000    0.000000000    0.000000000 250
 1      15.778700000    1.188240000    3.360850000    0.000000000    0.000000000    0.000000000 251
 1      14.406600000    1.980400000    5.601410000    0.000000000    0.000000000    0.000000000 252
 1      15.778700000    4.356880000    5.601410000    0.000000000    0.000000000    0.000000000 253
 1      14.405091364    0.395511381    7.846984610   -0.000015904    0.000001691    0.000013651 254
 1      15.779374209    2.770466979    7.846130901   -0.000034242    0.000008887   -0.000006016 255
 1      14.406202453    3.562987681   10.094940864    0.000009690    0.000019042   -0.000022090 256
 1      15.777475013    1.185615394   10.093120604   -0.000022454   -0.000019361    0.000006249 257
 1      14.402823419    1.980892825   12.376780791   -0.000013390    0.000007974   -0.000010250 258
 1      15.782096725    4.353895642   12.374188730   -0.000010083    0.000024001   -0.000015837 259
 1      14.406600000    5.149030000    1.120280000    0.000000000    0.000000000    0.000000000 260
 1      15.778700000    7.525510000    1.120280000    0.000000000    0.000000000    0.000000000 261
 1      14.406600000    8.317670000    3.360850000    0.000000000    0.000000000    0.000000000 262
 1      15.778700000    5.941190000    3.360850000    0.000000000    0.000000000    0.000000000 263
 1      14.406600000    6.733350000    5.601410000    0.000000000    0.000000000    0.000000000 264
 1      15.778700000    9.109830000    5.601410000    0.000000000    0.000000000    0.000000000 265
 1      14.412424880    5.144721461    7.841150368    0.000012424   -0.000041138   -0.000009391 266
 1      15.784583222    7.520543178    7.840797383    0.000034726    0.000008907   -0.000034846 267
 1      14.418049798    8.305621327   10.073818958   -0.000060857    0.000049004    0.000047117 268
 1      15.786130355    5.936134318   10.091878626    0.000017541   -0.000028405   -0.000004641 269
 1      14.410549634    6.730549068   12.381459336   -0.000025843   -0.000001054   -0.000015322 270
 1      15.769630104    9.105014853   12.384544097   -0.000030142    0.000003985    0.000004254 271
 1      14.406600000    9.901990000    1.120280000    0.000000000    0.000000000    0.000000000 272
 1      15.778700000   12.278500000    1.120280000    0.000000000    0.000000000    0.000000000 273
 1      14.406600000   13.070600000    3.360850000    0.000000000    0.000000000    0.000000000 274
 1      15.778700000   10.694100000    3.360850000    0.000000000    0.000000000    0.000000000 275
 1      14.406600000   11.486300000    5.601410000    0.000000000    0.000000000    0.000000000 276
 1      15.778700000   13.862800000    5.601410000    0.000000000    0.000000000    0.000000000 277
 1      14.409486446    9.899779625    7.841882511    0.000007386   -0.000002867   -0.000022822 278
 1      15.774774766   12.278566136    7.854849142   -0.000038723    0.000030863   -0.000001156 279
 1      14.391968410   13.062838199   10.120179719    0.000006715    0.000066791    0.000014607 280
 1      15.763842934   10.694349948   10.110530513    0.000029167    0.000008398    0.000011138 281
 1      14.358363059   11.462072055   12.433089466   -0.000011559   -0.000001277    0.000021349 282
 1      15.754248141   13.848818656   12.384865772   -0.000034138    0.000007274   -0.000006906 283
 1      14.406600000   14.654900000    1.120280000    0.000000000    0.000000000    0.000000000 284
 1      15.778700000   17.031400000    1.120280000    0.000000000    0.000000000    0.000000000 285
 1      14.406600000   17.823600000    3.360850000    0.000000000    0.000000000    0.000000000 286
 1      15.778700000   15.447100000    3.360850000    0.000000000    0.000000000    0.000000000 287
 1      14.406600000   16.239300000    5.601410000    0.000000000    0.000000000    0.000000000 288
 1      15.778700000   18.615700000    5.601410000    0.000000000    0.000000000    0.000000000 289
 1      14.404175710   14.651695643    7.853630279   -0.000017838   -0.000009010    0.000032733 290
 1      15.777540392   17.029973156    7.846021113    0.000030324    0.000018140    0.000002160 291
 1      14.403054532   17.819385920   10.094727022   -0.000010439    0.000006392    0.000011283 292
 1      15.773619611   15.442136961   10.095236136   -0.000066224   -0.000029424    0.000009323 293
 1      14.391671565   16.225973086   12.379926467   -0.000016281   -0.000009110   -0.000012515 294
 1      15.774049895   18.608658862   12.374765323   -0.000008525    0.000011380   -0.000007607 295
 1      17.150700000    0.396080000    1.120280000    0.000000000    0.000000000    0.000000000 296
 1      18.522800000    2.772560000    1.120280000    0.000000000    0.000000000    0.000000000 297
 1      17.150700000    3.564720000    3.360850000    0.000000000    0.000000000    0.000000000 298
 1      18.522800000    1.188240000    3.360850000    0.000000000    0.000000000    0.000000000 299