 #

 38 atoms
 1 atom types

    -11.5709         11.6762     xlo xhi
    -11.7439         11.5979     ylo yhi
    -11.7471         11.6466     zlo zhi
  0.0 0.0 0.0 xy xz yz


  Atoms

 1   1         -0.011945200153       -1.187610030174        1.095520019531
 2   1          1.676239967346       -0.873265981674        0.378973990679
 3   1          0.784137010574        0.554588019848        1.341639995575
 4   1         -1.314820051193        1.206449985504       -0.437059998512
 5   1          1.262019991875       -0.149892002344       -0.328061014414
 6   1         -0.734064996243       -1.422889947891       -0.898948013783
 7   1         -0.229783996940        0.785556972027        0.980017006397
 8   1          0.392688006163        1.153280019760       -0.438874989748
 9   1         -1.265470027924        0.881047010422        0.599922001362
10   1         -0.665616989136       -1.223150014877        0.217950001359
11   1         -1.560349941254        0.152928993106       -0.586175978184
12   1          0.224701002240        0.920167982578       -1.527320027351
13   1         -0.009446869604       -0.172570005059        1.646600008011
14   1         -1.126250028610       -0.493876993656       -1.398659944534
15   1         -0.116742998362       -0.138395994902       -1.747059941292
16   1          0.151785001159       -1.743919968605       -0.322387993336
17   1         -0.437339007854        1.597399950027        0.201749995351
18   1          1.390089988708        0.954672992229       -0.041775200516
19   1         -0.445428997278        1.597910046577       -0.944643974304
20   1          1.602300047874        0.181461006403        0.685860991478
21   1         -1.570880055428       -0.935495972633       -0.394607007504
22   1          0.593698024750        1.401579976082        0.611009001732
23   1          0.836301982403       -1.551130056381        0.515689015388
24   1          1.148390054703       -1.246299982071       -0.533819019794
25   1         -1.361660003662       -0.208048000932        0.401717007160
26   1          0.223325997591       -0.921947002411       -1.069730043411
27   1          0.795899987221       -0.490595012903        0.950545012951
28   1          1.606780052185        1.235409975052        1.018399953842
29   1         -1.035899996758        0.175907000899        1.407459974289
30   1         -1.051329970360       -0.895307004452        1.204959988594
31   1          1.191190004349        0.655833005905       -1.079800009727
32   1         -0.708986997604        0.528221011162       -1.126320004463
33   1         -0.478863000870        0.565010011196       -0.079853497446
34   1          0.357924014330       -0.711549997330       -0.013225499541
35   1         -0.597236990929       -0.408100992441       -0.467640012503
36   1         -0.330080002546       -0.241916000843        0.629909992218
37   1          0.529635012150        0.345721006393        0.299295008183
38   1          0.285095006227        0.122826002538       -0.751281023026
