 #

 38 atoms
 1 atom types

    -11.7361         11.7002     xlo xhi
    -11.8685         11.6122     ylo yhi
    -11.6826         11.6516     zlo zhi
  0.0 0.0 0.0 xy xz yz


  Atoms

 1   1          1.085790038109       -0.244351997972        1.386860013008
 2   1          0.006279719993       -1.201629996300       -0.871792972088
 3   1          1.038769960403        0.288076996803        0.391938000917
 4   1          1.700170040131       -0.143858000636       -0.400570005178
 5   1         -0.044967401773       -0.453671008348        1.651569962502
 6   1         -1.476909995079       -0.776960015297        0.011969500221
 7   1         -0.329870998859        1.391180038452        1.058429956436
 8   1         -0.444646000862        1.442420005798       -0.048082001507
 9   1         -0.756328999996        0.435761004686        1.439059972763
10   1         -0.806329011917       -0.444225013256        0.805510997772
11   1         -1.603080034256        0.271196991205       -0.135635003448
12   1         -0.663631021976       -1.487040042877       -0.041354101151
13   1          1.322450041771       -0.766183972359        0.437121003866
14   1         -1.123039960861       -0.396225005388       -1.000980019569
15   1          1.328709959984       -1.868530035019        0.466177999973
16   1          0.741150021553       -1.266129970551        1.222650051117
17   1         -1.736080050468        0.084032498300        0.941717982292
18   1         -0.623889982700        1.511279940605       -1.138810038567
19   1         -1.255949974060        1.017060041428        0.592696011066
20   1          0.876015007496       -0.796037971973       -1.412170052528
21   1          0.407983005047       -1.368800044060        0.141206994653
22   1          0.542622029781        1.255839943886        0.397796988487
23   1         -0.305049002171       -1.368540048599        0.993137001991
24   1          1.036049962044        0.255275011063       -1.178889989853
25   1         -0.406058996916       -0.427922993898       -0.197371006012
26   1         -0.831722974777        0.483294993639       -1.682579994202
27   1          1.302289962769       -1.306800007820       -0.523923993111
28   1          0.436612010002        1.612190008163       -0.679278016090
29   1         -1.475399971008        1.321670055389       -0.455599009991
30   1          0.276499986649       -0.423124998808        0.638077020645
31   1          0.188863992691        0.878144979477       -1.465100049973
32   1          0.344296991825        0.531044006348        1.244019985199
33   1          1.333529949188        0.982542991638       -0.400487989187
34   1         -0.033096298575       -0.150039002299       -1.193539977074
35   1         -0.700016975403        0.547874987125       -0.619490981102
36   1         -0.339841008186        0.462915003300        0.418776005507
37   1          0.327771991491        0.562026977539       -0.408327013254
38   1          0.660066008568       -0.443749010563       -0.384732991457
