 #

 38 atoms
 1 atom types

    -11.4882         11.5002     xlo xhi
    -11.5894         11.6441     ylo yhi
    -11.8916         11.6970     zlo zhi
  0.0 0.0 0.0 xy xz yz


  Atoms

 1   1          1.027559995651        0.120222002268        1.648519992828
 2   1         -0.677430987358       -1.542590022087       -1.077489972115
 3   1          1.237830042839        0.605749011040        0.671490013599
 4   1          1.451900005341        0.031419198960       -0.238579005003
 5   1         -0.114832997322       -0.048794500530        1.696990013123
 6   1         -1.083279967308       -0.615270972252       -0.684560000896
 7   1         -0.427789986134        1.644140005112        0.953848004341
 8   1         -0.570831000805        1.196110010147       -0.010937799700
 9   1         -0.693337976933        0.876541972160        1.658380031586
10   1         -0.542284011841       -0.781208992004        1.017019987106
11   1         -1.269919991493       -0.274325996637        0.313472986221
12   1         -1.184049963951        0.213924005628       -1.397779941559
13   1          1.500180006027       -0.487572997808        0.785722970963
14   1          0.417264014482       -1.279129981995       -1.307399988174
15   1          0.624984979630       -0.331600993872       -1.891579985619
16   1         -0.930963993073       -1.372460007668        0.121192999184
17   1         -1.224720001221       -0.021180599928        1.380040049553
18   1         -0.821568012238        1.194959998131       -1.079169988632
19   1         -1.336930036545        0.888791024685        0.728727996349
20   1          1.336640000343       -0.658940017223       -1.089259982109
21   1          0.314420014620       -1.362849950790        0.714706003666
22   1          0.456468999386        1.441560029984        0.309514999390
23   1          0.608102023602       -0.900505006313        1.657930016518
24   1          1.001459956169        0.459320008755       -1.170500040054
25   1         -0.209029003978       -0.584569990635        0.017439799383
26   1         -0.421005010605       -0.577156007290       -1.556810021400
27   1          0.082763098180       -1.589409947395       -0.314718991518
28   1          0.240989997983        1.173120021820       -0.762525975704
29   1         -1.488160014153        0.597992002964       -0.348526000977
30   1          0.458838999271       -0.256480008364        0.793245971203
31   1         -0.074237801135        0.466594010592       -1.536689996719
32   1          0.312559008598        0.827965974808        1.191789984703
33   1          1.275480031967        1.112200021744       -0.328761011362
34   1          0.342536002398       -0.309772998095       -0.839906990528
35   1         -0.492172002792        0.280074000359       -0.545520007610
36   1         -0.434960991144        0.313214987516        0.628997981548
37   1          0.441154986620        0.403181999922       -0.037316799164
38   1          0.866357982159       -0.853260993958       -0.070986703038
