 #

 38 atoms
 1 atom types

    -11.4802         11.3677     xlo xhi
    -11.9627         11.6340     ylo yhi
    -11.9042         11.7569     zlo zhi
  0.0 0.0 0.0 xy xz yz


  Atoms

 1   1          0.920235991478       -0.072270199656        1.606539964676
 2   1         -0.467377990484       -1.190039992332       -0.662174999714
 3   1          1.118370056152        0.482446014881        0.666612982750
 4   1          1.367709994316       -0.085440598428       -0.263700008392
 5   1         -0.187056005001       -0.185032993555        1.756860017776
 6   1         -1.133919954300       -1.069970011711        0.260901004076
 7   1         -0.388693004847        1.634009957314        0.996322989464
 8   1         -0.526914000511        1.566930055618       -0.127479001880
 9   1         -0.836592018604        0.729345977306        1.476770043373
10   1         -0.623296022415       -1.178339958191        1.298599958420
11   1         -1.390660047531        0.273000001907        0.087998002768
12   1         -1.327219963074       -0.474824994802       -0.691972970963
13   1          1.200530052185       -0.640543997288        0.676768004894
14   1          0.414651006460       -1.335940003395       -1.301319956779
15   1          0.466863989830       -0.349714010954       -1.904209971428
16   1          0.894201993942       -1.723950028419        0.594143986702
17   1         -0.894926011562       -0.208825007081        0.923740029335
18   1         -0.669453024864        1.476459980011       -1.244600057602
19   1         -1.342700004578        1.248370051384        0.592261016369
20   1          1.281880021095       -0.644052982330       -1.211420059204
21   1         -0.025169899687       -1.174929976463        0.376183003187
22   1          0.456025987864        1.344190001488        0.357003986835
23   1          0.458306998014       -1.053320050240        1.382079958916
24   1          0.941066026688        0.419270008802       -1.155500054359
25   1         -0.454472988844       -0.297448992729       -0.060305699706
26   1         -0.586950004101       -0.380308985710       -1.480399966240
27   1          0.269338011742       -1.962669968605       -0.351408004761
28   1          0.310784012079        1.263229966164       -0.774865984917
29   1         -1.480200052261        1.180809974670       -0.525694012642
30   1          0.221735000610       -0.179233998060        0.752601981163
31   1         -0.047848399729        0.585198998451       -1.591809988022
32   1          0.256500005722        0.768441975117        1.304360032082
33   1          1.297680020332        1.027529954910       -0.296748012304
34   1          0.261611998081       -0.363063007593       -0.847006022930
35   1         -0.576561987400        0.558230996132       -0.652876973152
36   1         -0.428799003363        0.663564026356        0.457094013691
37   1          0.405959993601        0.394809007645       -0.147898003459
38   1          0.845375001431       -1.045899987221       -0.275453001261
