 #

 38 atoms
 1 atom types

    -11.7036         11.6916     xlo xhi
    -11.6907         11.7099     ylo yhi
    -11.7509         11.8024     zlo zhi
  0.0 0.0 0.0 xy xz yz


  Atoms

 1   1          0.105705998838        0.489417999983        1.802399992943
 2   1          1.107699990273       -1.187469959259       -0.612390995026
 3   1          1.507210016251       -0.094435296953        0.896647989750
 4   1         -0.144844993949        1.452000021935       -0.985867977142
 5   1          1.427579998970        0.381940007210       -0.927743017673
 6   1         -0.723154008389       -1.592000007629       -0.524366021156
 7   1         -1.065850019455       -0.611449003220        0.883680999279
 8   1          0.687671005726        1.550379991531        0.380847007036
 9   1         -1.180220007896        1.157019972801        0.592992007732
10   1          0.127529993653       -1.197909951210        1.068689942360
11   1         -1.502110004425        0.102746002376       -0.934760987759
12   1         -0.699687004089        0.634850025177       -1.500839948654
13   1         -0.932072997093        0.402025014162        1.361930012703
14   1         -0.976410984993       -0.813098013401       -1.264840006828
15   1         -0.142992004752       -0.292456001043       -1.750859975815
16   1          0.282337993383       -1.690739989281       -0.023567300290
17   1         -1.703580021858        0.271854013205        0.158472999930
18   1          0.911525011063        1.327000021935       -0.677232027054
19   1         -0.367172986269        1.709939956665        0.064316101372
20   1          1.691609978676       -0.358336985111       -0.165097996593
21   1         -0.736415982246       -1.602040052414        0.552175998688
22   1          0.942713022232        0.812554001808        1.181529998779
23   1          0.734516978264       -0.414029985666        1.594239950180
24   1          0.905278980732       -0.452515989542       -1.420729994774
25   1         -1.208600044250       -0.656539976597       -0.191532999277
26   1          0.079225100577       -0.991577982903       -0.919110000134
27   1          0.910785019398       -0.875190019608        0.418998986483
28   1          1.166990041733        0.591015994549        0.123469002545
29   1         -0.939301013947        0.904352009296       -0.448390007019
30   1         -0.364710986614       -0.475398987532        1.695440053940
31   1          0.373387992382        0.506253004074       -1.206429958344
32   1         -0.123722001910        1.004809975624        0.875958025455
33   1          0.618988990784       -0.197347000241       -0.386965990067
34   1         -0.424744993448       -0.048353798687       -0.693580985069
35   1          0.129379004240        0.751318991184       -0.164598003030
36   1         -0.649667978287        0.207734003663        0.334877997637
37   1          0.356597989798        0.032417301089        0.684445023537
38   1         -0.181475996971       -0.738740026951        0.127774000168
