 #

 38 atoms
 1 atom types

    -11.4793         11.5404     xlo xhi
    -12.1821         11.7560     ylo yhi
    -11.7866         11.7802     zlo zhi
  0.0 0.0 0.0 xy xz yz


  Atoms

 1   1          0.996559023857       -0.152957007289        1.502230048180
 2   1          0.486842006445       -1.490540027618       -0.869327008724
 3   1          1.307160019875        0.474236011505        0.599668979645
 4   1          1.411419987679       -0.022979600355       -0.404316008091
 5   1         -0.016369799152       -0.630019009113        1.780189990997
 6   1         -1.479290008545       -0.676308989525        0.047348801047
 7   1         -0.562227010727        1.326079964638        1.293179988861
 8   1         -0.324467003345        1.756010055542        0.323826998472
 9   1         -0.546468019485        0.252054989338        1.441339969635
10   1         -0.814566016197       -0.682987987995        0.962463974953
11   1         -1.356019973755        0.412413001060       -0.238930001855
12   1         -0.613727986813       -1.281209945679       -0.549412012100
13   1          1.332470059395       -0.623112022877        0.536103010178
14   1         -1.103260040283       -0.355756014585       -0.977782011032
15   1          0.879517018795       -1.656739950180        0.192792996764
16   1          0.682824015617       -1.206130027771        1.181779980659
17   1         -1.426550030708        0.205923005939        0.807515025139
18   1         -0.318872004747        1.239510059357       -1.494969964027
19   1         -1.350729942322        1.279629945755        0.491746991873
20   1          1.022230029106       -0.581092000008       -1.268550038338
21   1         -0.039686601609       -2.182060003281       -0.190246999264
22   1          0.717761993408        1.412330031395        0.411085009575
23   1         -0.110281996429       -1.274590015411        0.420291006565
24   1          0.593856990337        0.436666995287       -1.143000006676
25   1         -0.474528014660       -0.327722996473       -0.038645401597
26   1         -1.294510006905        0.700387001038       -1.311750054359
27   1          1.540390014648       -1.117699980736       -0.469868004322
28   1          0.209709003568        1.346789956093       -0.548802971840
29   1         -0.909776985645        1.391569972038       -0.523241996765
30   1          0.221540004015       -0.273928999901        0.767037987709
31   1         -0.426468998194        0.183825001121       -1.786640048027
32   1          0.377602994442        0.721374988556        1.150310039520
33   1          1.268810033798        1.046560049057       -0.459950000048
34   1         -0.033100601286       -0.508898019791       -1.062129974365
35   1         -0.396115005016        0.466109991074       -0.723335981369
36   1         -0.464738994837        0.660417973995        0.399673014879
37   1          0.457679986954        0.398858994246       -0.052921801805
38   1          0.555368006229       -0.666027009487       -0.194750994444
