 #

 38 atoms
 1 atom types

    -11.6681         11.6863     xlo xhi
    -11.5491         11.6661     ylo yhi
    -11.7496         11.8895     zlo zhi
  0.0 0.0 0.0 xy xz yz


  Atoms

 1   1          1.160199999809       -0.116867996752        1.247529983521
 2   1          0.294349998236       -1.549139976501       -1.029800057411
 3   1          1.647799968719        0.199542000890        0.300812005997
 4   1          1.264840006828       -0.028232099488       -0.688632011414
 5   1         -0.579473972321        0.292721986771        1.678439974785
 6   1         -0.648199021816       -0.993210017681       -0.694675981998
 7   1         -0.133090004325        1.176489949226        1.055739998817
 8   1         -0.842383980751        1.666120052338        0.247389003634
 9   1         -1.205899953842        0.999818980694        1.094480037689
10   1          0.292337000370       -0.396503001451        1.889459967613
11   1         -1.338099956512       -0.218601003289       -0.285980999470
12   1         -1.114730000496       -0.300300002098       -1.444350004196
13   1          1.686259984970       -0.906305015087        0.591705024242
14   1         -0.496641010046       -1.222040057182       -1.749559998512
15   1          0.001205250039       -0.259395003319       -1.674510002136
16   1         -1.088050007820       -1.138100028038        0.327807009220
17   1         -1.175519943237       -0.077646002173        0.798384010792
18   1         -0.384258985519        1.224969983101       -0.706144988537
19   1         -1.668140053749        0.759496986866        0.135379001498
20   1          1.194470047951       -1.153309941292       -0.441329985857
21   1         -0.422224998474       -0.791325986385        1.157739996910
22   1          0.914819002151        0.873506009579        0.748512983322
23   1          0.633325994015       -1.110990047455        1.099159955978
24   1          0.473596006632        0.607434988022       -1.168490052223
25   1         -0.330767005682       -0.399320006371        0.150362998247
26   1          0.985606014729       -0.772023022175       -1.502629995346
27   1          0.155226007104       -1.351459980011        0.074166201055
28   1          0.278952002525        1.495720028877        0.098587498069
29   1         -1.356729984283        0.708793997765       -0.916441023350
30   1          0.143717005849        0.130000993609        0.917878985405
31   1         -0.547739028931        0.697950005531       -1.688930034637
32   1          0.529251992702        0.673680007458        1.783370018005
33   1          1.230200052261        1.043670058250       -0.346210002899
34   1          0.330536007881       -0.534511029720       -0.686085999012
35   1         -0.446309000254        0.159162998199       -0.753176987171
36   1         -0.598258018494        0.632061004639        0.221076995134
37   1          0.385183006525        0.432945996523       -0.115590997040
38   1          0.774637997150       -0.454793989658        0.274565994740
