 #

 38 atoms
 1 atom types

    -11.3058         11.6921     xlo xhi
    -11.7281         11.6636     ylo yhi
    -11.8901         11.7213     zlo zhi
  0.0 0.0 0.0 xy xz yz


  Atoms

 1   1          0.980318009853        0.355365008116        0.904380023479
 2   1          0.300747990608       -1.728139996529       -0.684571027756
 3   1          1.352270007133       -0.112375997007       -0.551589012146
 4   1          0.765164971352       -0.166913002729       -1.500849962234
 5   1         -0.757131993771        0.267428010702        1.610049962997
 6   1         -0.598273992538       -1.036409974098       -0.648108005524
 7   1         -0.449452996254        1.385190010071        1.499819993973
 8   1         -0.569851994514        1.663640022278        0.451068013906
 9   1         -1.288339972496        0.987033009529        0.912494003773
10   1          1.172359943390       -0.608264029026        1.425670027733
11   1         -1.305799961090       -0.228384003043       -0.430768996477
12   1         -1.019379973412       -0.432002991438       -1.468070030212
13   1          1.692139983177       -0.360296994448        0.454012989998
14   1         -0.020006500185       -0.917940020561       -1.558169960976
15   1         -0.205486997962        0.164539992809       -1.890079975128
16   1         -1.241960048676       -1.102390050888        0.231558993459
17   1         -1.281780004501       -0.063232302666        0.674874007702
18   1         -0.879669010639        1.626919984818       -0.630985021591
19   1         -0.872819006443        0.688087999821       -0.087439201772
20   1          1.317549943924       -1.204720020294       -0.250669002533
21   1         -0.709438979626       -0.886790990829        1.150979995728
22   1          0.507220983505        1.374979972839        0.791929006577
23   1          0.314788013697       -1.339419960976        1.289540052414
24   1          0.770105004311        0.742208003998       -0.949046015739
25   1         -0.374271005392       -0.363088995218        0.203895002604
26   1          1.049209952354       -1.203860044479       -1.320119976997
27   1         -0.154596999288       -1.419710040092        0.286478996277
28   1          0.096745498478        1.206490039825       -0.242469996214
29   1         -1.174119949341        0.629581987858       -1.152320027351
30   1          0.139202997088       -0.254530012608        1.257449984550
31   1         -0.193338006735        1.095100045204       -1.304360032082
32   1          0.347496002913        0.698518991470        1.721250057220
33   1          1.243810057640        0.976378977299        0.022111799568
34   1          0.415625989437       -0.671078979969       -0.582076013088
35   1         -0.276383996010        0.104089997709       -0.804001986980
36   1         -0.223483994603        0.604632019997        0.733390986919
37   1          0.466818004847        0.238970994949       -0.020332399756
38   1          0.664000988007       -0.709618985653        0.455081999302
