 #

 38 atoms
 1 atom types

    -11.5273         11.6179     xlo xhi
    -11.5932         11.6422     ylo yhi
    -11.8402         11.7164     zlo zhi
  0.0 0.0 0.0 xy xz yz


  Atoms

 1   1          0.909604012966        0.306894987822        1.580010056496
 2   1          0.229637995362       -1.361850023270       -1.007820010185
 3   1          1.477429986000        0.233752995729        0.633090019226
 4   1          1.617810010910       -0.211780995131       -0.337251007557
 5   1          0.126719996333        1.073580026627        1.645390033722
 6   1         -0.769176006317       -1.049080014229       -0.599865019321
 7   1         -0.389811992645        1.399060010910        0.692270994186
 8   1         -1.527330040932        0.745553970337       -0.424973011017
 9   1         -0.836652994156        0.587342977524        1.630190014839
10   1         -0.049780201167       -0.214682996273        1.716359972954
11   1         -1.296530008316       -0.273930996656       -0.002143020043
12   1         -1.025290012360       -0.067493699491       -1.035930037498
13   1          1.617849946022       -0.859118998051        0.543322980404
14   1         -0.305696010590        0.173985004425       -1.840180039406
15   1          0.500037014484       -0.582125008106       -1.801830053329
16   1         -1.056750059128       -1.261870026588        0.443203985691
17   1         -0.917430996895       -0.343147993088        1.041659951210
18   1         -0.717652976513        1.506469964981       -0.389755994081
19   1         -1.158720016479        0.624047994614        0.597849011421
20   1          1.263479948044       -0.931389987469       -1.101770043373
21   1         -0.171026006341       -1.150279998779        1.097309947014
22   1          0.781118988991        1.041249990463        0.768557012081
23   1          0.788021981716       -1.546759963036        0.729460000992
24   1          0.979251027107        0.153453007340       -1.112920045853
25   1         -0.242478996515       -0.517841994762        0.195194005966
26   1         -0.550837993622       -0.879957020283       -1.651059985161
27   1         -0.070587798953       -1.593240022659        0.050790399313
28   1          0.310939013958        1.278910040855       -0.144492000341
29   1         -0.921389997005        0.974412024021       -1.329480051994
30   1          0.633516013622       -0.448677003384        0.848604977131
31   1          0.119204998016        0.790642976761       -1.064149975777
32   1         -1.468199968338        1.642199993134        0.394313007593
33   1          1.352659940720        0.893244981766       -0.291426002979
34   1          0.023915799335       -0.304681003094       -0.847088992596
35   1         -0.476155996323        0.460260003805       -0.225264996290
36   1         -0.088091902435        0.371574997902        0.805046021938
37   1          0.575909018517        0.204416006804       -0.046323701739
38   1          0.732483983040       -0.863122999668       -0.158904001117
