 #

 38 atoms
 1 atom types

    -11.5995         11.5656     xlo xhi
    -11.5529         11.4734     ylo yhi
    -11.7298         11.6732     zlo zhi
  0.0 0.0 0.0 xy xz yz


  Atoms

 1   1          1.041800022125       -0.333342999220        1.424569964409
 2   1          0.687345027924       -1.528959989548       -1.077049970627
 3   1          1.302459955215        0.364378005266        0.608560979366
 4   1          1.499559998512       -0.022691499442       -0.410079985857
 5   1         -0.020867599174       -0.404444992542        1.673189997673
 6   1         -1.302209973335       -0.930626988411        0.050356499851
 7   1         -0.249454006553        1.413550019264        1.078729987144
 8   1         -0.196006000042        1.455700039864       -0.022867800668
 9   1         -0.744575023651        0.482176989317        1.483319997787
10   1         -0.750208973885       -0.438354998827        0.867051005363
11   1         -1.359349966049        0.136660993099       -0.284700006247
12   1         -0.289878010750       -1.297950029373       -0.683245003223
13   1          1.324730038643       -0.737592995167        0.435746014118
14   1         -1.113849997520       -0.633965015411       -1.012429952621
15   1          0.689345002174       -1.552909970284        0.047683600336
16   1          0.547707974911       -1.319839954376        1.153789997101
17   1         -1.599480032921        0.218906998634        0.774092018604
18   1         -0.705644011497        1.473410010338       -1.218009948730
19   1         -1.289919972420        1.269109964371        0.802062988281
20   1          1.088549971581       -0.562552988529       -1.409420013428
21   1         -0.310526996851       -1.317639946938        0.397262006998
22   1          0.728645980358        1.332929968834        0.558847010136
23   1         -0.538129985332       -1.352280020714        1.465080022812
24   1          0.694685995579        0.370501995087       -1.043930053711
25   1         -0.411711990833       -0.355652987957       -0.180643007159
26   1         -1.172770023346        0.431324988604       -1.357779979706
27   1          1.565610051155       -1.123589992523       -0.560609996319
28   1          0.363846004009        1.386710047722       -0.945089995861
29   1         -1.223270058632        1.197399973869       -0.294131010771
30   1          0.306069999933       -0.441480010748        0.603976011276
31   1         -0.119272001088        0.672903001308       -1.729850053787
32   1          0.312142997980        0.487500011921        1.119320034981
33   1          1.256119966507        1.049399971962       -0.357280999422
34   1         -0.089539602399       -0.345485001802       -1.253299951553
35   1         -0.371019989252        0.585739016533       -0.676473021507
36   1         -0.569692015648        0.537249028683        0.412739008665
37   1          0.428003013134        0.429284989834       -0.003285590094
38   1          0.590753018856       -0.595468997955       -0.436204999685
