 #

 38 atoms
 1 atom types

    -11.4933         11.7238     xlo xhi
    -11.4945         11.6145     ylo yhi
    -11.9163         11.8862     zlo zhi
  0.0 0.0 0.0 xy xz yz


  Atoms

 1   1          1.262159943581       -0.014907799661        1.286000013351
 2   1         -0.026617199183       -1.284700036049       -0.910513997078
 3   1          1.401280045509        0.008760339580        0.200360000134
 4   1          1.189239978790        0.083619900048       -0.899163007736
 5   1         -0.326126992702        0.382759988308        1.506060004234
 6   1         -0.996033012867       -1.350579977036       -0.429315000772
 7   1         -0.079189002514        1.409459948540        1.110409975052
 8   1         -0.795436978340        1.614500045776        0.247596994042
 9   1         -1.150300025940        1.013669967651        1.109400033951
10   1          0.419818013906       -0.359153985977        1.886199951172
11   1         -1.426499962807       -0.332224011421       -0.217623993754
12   1         -0.871396005154       -0.517437994480       -1.134719967842
13   1          1.193160057068       -0.951655983925        0.695320010185
14   1         -0.088390201330       -0.741717994213       -1.916309952736
15   1          0.642898976803        0.122495003045       -1.886270046234
16   1         -0.970637023449       -1.128190040588        0.626101016998
17   1         -1.126850008965       -0.061734199524        0.802007019520
18   1         -0.629292011261        1.422140002251       -0.862221002579
19   1         -1.403939962387        0.731912016869        0.042201999575
20   1          1.723790049553       -0.806749999523       -0.493656992912
21   1         -0.565788984299       -0.671176016331        1.519770026207
22   1          0.734390974045        0.779787003994        0.731670975685
23   1          0.287131994963       -1.271139979362        1.220739960670
24   1          0.355464011431        0.851096987724       -1.063230037689
25   1         -0.370362997055       -0.492673993111       -0.043611399829
26   1          0.933324992657       -0.894811987877       -1.341449975967
27   1         -0.018118899316       -1.494549989700        0.188693001866
28   1          0.196208000183        1.344789981842       -0.082834996283
29   1         -1.493270039558        0.433420002460       -1.076930046082
30   1          0.284979999065       -0.256931006908        0.791100025177
31   1         -0.472083985806        0.386303991079       -1.655760049820
32   1          0.642627000809        0.754368007183        1.815899968147
33   1          1.222360014915        1.005439996719       -0.283717989922
34   1          0.149022996426       -0.234619006515       -1.005929946899
35   1         -0.562265992165        0.409756988287       -0.560540020466
36   1         -0.368337005377        0.593946993351        0.459996998310
37   1          0.425498008728        0.276973992586       -0.144786000252
38   1          0.677574992180       -0.760251998901       -0.230938002467
