 #

 38 atoms
 1 atom types

    -11.6824         11.6946     xlo xhi
    -11.9407         11.6698     ylo yhi
    -11.7032         11.7161     zlo zhi
  0.0 0.0 0.0 xy xz yz


  Atoms

 1   1          0.574491024017        0.614401996136        1.716060042381
 2   1          0.898111999035       -1.045699954033       -0.660950005054
 3   1          0.912184000015       -0.222489997745        1.047449946404
 4   1         -0.347236007452        1.590049982071       -0.879297971725
 5   1          1.353620052338       -0.052096400410       -0.804018020630
 6   1         -0.456375002861       -1.940680027008       -0.621640026569
 7   1         -1.343490004539       -0.007150100078        0.914794027805
 8   1          0.897620022297        1.626379966736        0.559638977051
 9   1         -0.824644029140        0.740382015705        0.277539998293
10   1          0.232922002673       -1.052629947662        0.793433010578
11   1         -1.480399966240       -0.027678400278       -1.231879949570
12   1         -0.371513009071        0.609126985073       -1.378110051155
13   1         -0.519562005997        0.609669983387        1.324440002441
14   1         -1.010660052299       -1.017400026321       -0.913905024529
15   1         -0.560763001442       -0.407907009125       -1.703189969063
16   1          0.466591000557       -1.814820051193        0.013598299585
17   1         -1.682369947433        0.126144006848       -0.132148995996
18   1          0.672493994236        1.669770002365       -0.521408975124
19   1         -0.152281999588        1.589619994164        0.224593997002
20   1          1.694630026817       -0.078460000455        0.263328999281
21   1         -0.575601994991       -1.700739979744        0.434145003557
22   1          1.407850027084        0.745800971985        0.965040028095
23   1         -0.018071400002       -0.315120011568        1.595420002937
24   1          0.277047991753       -0.202848002315       -1.014950037003
25   1         -1.150740027428       -0.799010992050        0.149085000157
26   1          0.029601400718       -1.240769982338       -1.304319977760
27   1          1.232859969139       -1.066409945488        0.375853985548
28   1          1.125360012054        0.772623002529       -0.117324002087
29   1         -1.191720008850        0.918024003506       -0.726408004761
30   1         -0.813044011593       -0.937434017658        1.188770055771
31   1          0.737075984478        0.793057024479       -1.204710006714
32   1          0.086332403123        1.526980042458        1.304679989815
33   1          0.618658006191       -0.198326006532        0.011827900074
34   1         -0.674216985703       -0.050377398729       -0.512583971024
35   1          0.064130201936        0.696946978569       -0.370568990707
36   1         -0.326617985964       -0.174502000213        0.530629992485
37   1          0.344361990690        0.663528025150        0.656436979771
38   1         -0.126613005996       -0.939944028854       -0.249355003238
