 #

 38 atoms
 1 atom types

    -11.4006         11.5008     xlo xhi
    -11.5184         11.6641     ylo yhi
    -11.7881         11.8213     zlo zhi
  0.0 0.0 0.0 xy xz yz


  Atoms

 1   1          1.303390026093        0.123736001551        0.689926028252
 2   1          0.367615014315       -1.518409967422       -0.605659008026
 3   1          1.444129943848       -0.279031008482       -0.300776988268
 4   1          0.915359973907        0.309991002083       -1.024270057678
 5   1         -0.607576012611        0.258670002222        1.528699994087
 6   1         -0.676795005798       -1.133939981461       -0.629601001740
 7   1         -0.267518997192        1.312129974365        1.345350027084
 8   1         -0.735270977020        1.664139986038        0.366200000048
 9   1         -1.297420024872        1.003149986267        1.060089945793
10   1          1.077370047569       -0.373876988888        1.647950053215
11   1         -1.309100031853       -0.232379004359       -0.408387005329
12   1         -0.749137997627       -0.295653998852       -1.354239940643
13   1          1.500800013542       -0.952040970325        0.763050973415
14   1         -0.030140299350       -1.144979953766       -1.568369984627
15   1          0.260904997587       -0.095232203603       -1.788059949875
16   1         -1.262789964676       -1.079710006714        0.315039008856
17   1         -1.277680039406       -0.035447098315        0.689040005207
18   1         -0.718312025070        1.455610036850       -0.760806024075
19   1         -1.315840005875        0.813547015190       -0.041540000588
20   1          1.416260004044       -1.379539966583       -0.283585011959
21   1         -0.584649980068       -0.789790987968        1.155740022659
22   1          0.623551011086        0.951231002808        0.819543004036
23   1          0.464969009161       -1.180209994316        1.178979992867
24   1          0.328590989113        1.201990008354       -1.147830009460
25   1         -0.401160985231       -0.397832006216        0.150461003184
26   1          1.045250058174       -0.826303005219       -1.209069967270
27   1         -0.222394004464       -1.469059944153        0.340407013893
28   1          0.182554006577        1.307369947433       -0.100116997957
29   1         -1.400640010834        0.607205986977       -1.113800048828
30   1          0.262241989374       -0.115184001625        0.969309985638
31   1         -0.478143006563        0.727272987366       -1.671650052071
32   1          0.429737001657        0.544104993343        1.821280002594
33   1          1.281329989433        0.932923018932       -0.147254005075
34   1          0.161152005196       -0.447185993195       -0.758213996887
35   1         -0.417147010565        0.442696988583       -0.590705990791
36   1         -0.402592986822        0.619906008244        0.510664999485
37   1          0.476375013590        0.257165014744       -0.022212199867
38   1          0.612708985806       -0.787033975124        0.174432992935
