 #

 38 atoms
 1 atom types

    -11.4464         11.5370     xlo xhi
    -11.5184         11.6015     ylo yhi
    -11.8750         11.8799     zlo zhi
  0.0 0.0 0.0 xy xz yz


  Atoms

 1   1          0.881906986237        0.250266999006        1.804530024529
 2   1          0.297425001860       -1.478649973869       -1.118049979210
 3   1          1.101500034332        0.613815009594        0.779846012592
 4   1          1.536970019341       -0.066209599376       -0.003088169964
 5   1         -0.226965993643        0.029836399481        1.879870057106
 6   1         -0.712661981583       -1.006479978561       -0.706362009048
 7   1         -0.571079015732        1.601510047913        0.790490984917
 8   1         -0.587384998798        1.341989994049       -0.283841013908
 9   1         -0.941056013107        0.755622029305        1.396679997444
10   1          0.536248981953       -0.796828985214        1.765840053558
11   1         -1.290650010109       -0.057904500514        0.017844000831
12   1         -1.400009989738       -0.254610002041       -1.057180047035
13   1          1.322700023651       -0.453108012676        1.039240002632
14   1         -0.901472985744        0.242790997028       -1.875010013580
15   1          0.779406011105       -0.616499006748       -1.725139975548
16   1         -1.089699983597       -1.148579955101        0.336398988962
17   1         -0.866208970547       -0.269744008780        1.024049997330
18   1         -0.588299989700        1.146720051765       -1.363059997559
19   1         -1.421100020409        0.977635979652        0.393431007862
20   1          1.268390059471       -0.885922014713       -0.761702001095
21   1         -0.165553003550       -1.110890030861        0.979514002800
22   1          0.373701006174        1.307520031929        0.285317987204
23   1          0.861512005329       -1.497490048409        0.957942008972
24   1          1.089269995689        0.203893005848       -0.988134980202
25   1         -0.299524992704       -0.458777993917        0.117495000362
26   1         -0.340898990631       -0.686191022396       -1.671129941940
27   1         -0.020465100184       -1.518399953842       -0.036173999310
28   1          0.350468009710        1.049729943275       -0.797294974327
29   1         -1.446409940720        0.795677006245       -0.715032994747
30   1          0.285919994116       -0.108948998153        0.939688026905
31   1          0.153176993132        0.300570994616       -1.568269968033
32   1          0.154902994633        0.918183982372        1.298750042915
33   1          1.310739994049        1.001399993896       -0.240670993924
34   1          0.261139005423       -0.474483996630       -0.784008026123
35   1         -0.484988003969        0.286843001842       -0.666027009487
36   1         -0.427644014359        0.553111970425        0.436127007008
37   1          0.490076005459        0.278573006392       -0.059969000518
38   1          0.726622998714       -0.765958011150        0.177075996995
