 #

 38 atoms
 1 atom types

    -11.5551         12.1119     xlo xhi
    -11.5681         11.5081     ylo yhi
    -11.7683         11.6484     zlo zhi
  0.0 0.0 0.0 xy xz yz


  Atoms

 1   1          1.064139962196        0.385244995356        0.872363984585
 2   1          0.362120002508       -1.199409961700       -0.247501000762
 3   1          1.269009947777       -0.163936004043       -0.060594398528
 4   1          1.848569989204        0.403250008821       -0.820699989796
 5   1         -0.953471004963        0.428829014301        1.648429989815
 6   1         -0.702309012413       -1.137680053711       -0.556616008282
 7   1         -0.405272990465        1.371180057526        1.379220008850
 8   1         -0.632808029652        1.508129954338        0.203494995832
 9   1         -1.401270031929        1.139950037003        0.922767996788
10   1          2.111949920654       -0.642511010170       -0.639418005943
11   1         -1.380800008774       -0.247999995947       -0.457428991795
12   1         -0.760553002357       -0.366046011448       -1.400519967079
13   1          0.764421999454       -1.568070054054        0.762112975121
14   1          0.088300801814       -1.193740010262       -1.333860039711
15   1          0.347579985857       -0.209692999721       -1.768309950829
16   1         -1.347110033035       -1.020560026169        0.375928997993
17   1         -1.439010024071        0.063578397036        0.610482990742
18   1         -0.843133985996        1.471449971199       -0.877261996269
19   1         -1.555140018463        0.892674982548       -0.143360003829
20   1          1.422780036926       -1.244519948959       -0.048415400088
21   1         -0.697920978069       -0.533244013786        1.206599950790
22   1          0.385486990213        1.260910034180        0.622119009495
23   1          1.455229997635       -0.679462015629        0.939369022846
24   1          0.777830004692        0.447430998087       -0.961027979851
25   1         -0.501740992069       -0.379348993301        0.174780994654
26   1          1.040050029755       -0.664996027946       -0.991656005383
27   1         -0.310241997242       -1.364699959755        0.599287986755
28   1          0.196129992604        1.274809956551       -0.506520986557
29   1         -1.348839998245        0.555393993855       -1.213680028915
30   1          0.145825996995        0.154449999332        1.425500035286
31   1         -0.228278994560        0.652119994164       -1.391739964485
32   1          0.255190998316       -0.976059019566        1.560969948769
33   1          1.223649978638        0.971962988377       -0.081216000021
34   1          0.049521498382       -0.295055985451       -0.728273987770
35   1         -0.603070020676        0.519249022007       -0.404947012663
36   1         -0.492219001055        0.557968020439        0.673694014549
37   1          0.345903009176        0.359447985888        0.052105598152
38   1          0.449501991272       -0.531002998352        0.603811025620
