 #

 38 atoms
 1 atom types

    -11.5422         11.6337     xlo xhi
    -11.6805         11.7246     ylo yhi
    -12.1292         11.9181     zlo zhi
  0.0 0.0 0.0 xy xz yz


  Atoms

 1   1          0.619548022747        0.423588007689        1.874179959297
 2   1          1.092849969864       -1.012850046158       -0.541935026646
 3   1          1.301949977875        0.018733499572        1.040060043335
 4   1         -0.235899999738        1.169989943504       -1.359040021896
 5   1          1.137220025063        0.213649004698       -0.882260024548
 6   1         -1.040820002556       -1.147539973259       -0.471893996000
 7   1         -1.290750026703       -0.712345004082        0.482468008995
 8   1          0.291002988815        1.496559977531        0.514532029629
 9   1         -0.776786029339        1.119770050049        0.454055994749
10   1          0.191616997123       -1.582219958305        1.141459941864
11   1         -1.518190026283       -0.167547002435       -0.804113984108
12   1         -0.973550021648        0.392026990652       -1.612450003624
13   1         -0.416756004095        0.049792200327        1.918110013008
14   1         -0.700106978416       -0.641364991665       -1.396550059319
15   1         -0.105134002864       -0.057619199157       -2.129159927368
16   1          0.348093003035       -1.680500030518        0.052221398801
17   1         -1.542230010033        0.336364001036        0.196836993098
18   1          0.701286017895        1.240239977837       -0.796088993549
19   1         -0.316094011068        1.724629998207       -0.401405990124
20   1          1.633659958839       -0.221149995923        0.015965899453
21   1         -0.709497988224       -1.665459990501        0.473141014576
22   1          1.067090034485        1.106250047684        1.162840008736
23   1          0.374601989985       -0.537266016006        1.422250032425
24   1          0.642153024673       -0.580498993397       -1.478309988976
25   1         -0.626110970974       -0.138385996222       -0.207227006555
26   1          0.004934129771       -0.930846989155       -0.641772985458
27   1          0.960003972054       -0.929437994957        0.576492011547
28   1          1.084419965744        0.741905987263        0.120669998229
29   1         -0.970583021641        0.820051014423       -0.611389994621
30   1         -0.685066998005       -0.911768972874        1.392760038376
31   1          0.658070027828        0.642130970955       -1.759989976883
32   1         -0.214737996459        1.036919951439        1.414680004120
33   1          0.539683997631       -0.186019003391       -0.105221003294
34   1         -0.016287699342        0.148118004203       -1.042930006981
35   1          0.007719269954        0.724888026714       -0.162549003959
36   1         -0.705195009708        0.107808001339        0.875636994839
37   1          0.315856993198        0.349794000387        0.795340001583
38   1         -0.127978995442       -0.760393023491        0.480614989996
