 #

 38 atoms
 1 atom types

    -11.5088         11.5287     xlo xhi
    -11.7933         11.5778     ylo yhi
    -11.8405         11.8759     zlo zhi
  0.0 0.0 0.0 xy xz yz


  Atoms

 1   1          1.127509951591        0.080378696322        1.664669990540
 2   1          0.846508979797       -1.793259978294       -0.324981987476
 3   1          1.230399966240        0.520660996437        0.653980016708
 4   1          1.528650045395       -0.122528001666       -0.215415000916
 5   1         -0.428198009729        0.119190998375        1.533789992332
 6   1         -0.677160978317       -1.159389972687       -0.665840029716
 7   1         -0.355888009071        1.577780008316        0.941681027412
 8   1         -0.507611989975        1.416810035706       -0.146754994988
 9   1         -1.169370055199        0.871855020523        1.168449997902
10   1          0.321404010057       -0.639276981354        1.875920057297
11   1         -1.318249940872       -0.313742995262       -0.343308985233
12   1         -0.831044971943       -0.310804992914       -1.349230051041
13   1          1.438860058784       -0.557051002979        0.803439974785
14   1         -0.661772012711        1.247930049896       -1.243620038033
15   1          0.535881996155       -0.540261983871       -1.840459942818
16   1         -1.159369945526       -1.182929992676        0.329677999020
17   1         -1.167600035667       -0.154632002115        0.753939986229
18   1         -1.508780002594        1.564749956131       -0.594114005566
19   1         -1.332219958305        0.707539021969        0.079605199397
20   1          1.155869960785       -0.868930995464       -0.960822999477
21   1         -0.417259007692       -0.907746016979        1.098979949951
22   1          0.494547992945        1.275200009346        0.297805011272
23   1          0.621372997761       -1.273100018501        1.001639962196
24   1          0.968836009502        0.223722994328       -1.111479997635
25   1         -0.337998002768       -0.449535995722        0.116111002862
26   1          0.242763996124       -1.455700039864       -1.190739989281
27   1         -0.101879999042       -1.520089983940        0.197519004345
28   1          0.336984008551        1.102120041847       -0.794564008713
29   1         -1.478770017624        0.537983000278       -1.025099992752
30   1          0.398366004229       -0.183558002114        0.875612020493
31   1         -0.022317800671        0.396441996098       -1.564350008965
32   1          0.385794013739        0.831179976463        1.309710025787
33   1          1.340819954872        0.960663020611       -0.358253985643
34   1          0.135243996978       -0.437561988831       -0.844994008541
35   1         -0.492302000523        0.399295002222       -0.557550013065
36   1         -0.333770990372        0.556164026260        0.520708024502
37   1          0.498616009951        0.267219007015       -0.114045001566
38   1          0.693139016628       -0.786795973778        0.022395500913
