 #

 38 atoms
 1 atom types

    -11.5702         11.5517     xlo xhi
    -11.7830         11.7608     ylo yhi
    -11.7544         11.8878     zlo zhi
  0.0 0.0 0.0 xy xz yz


  Atoms

 1   1          1.015159964561       -1.194929957390        0.696250021458
 2   1          0.710408985615       -1.045400023460       -1.140020012856
 3   1          1.348549962044       -0.132106006145        0.335584998131
 4   1          1.210180044174       -0.122868999839       -0.789704024792
 5   1         -0.445345014334        0.350268989801        1.078410029411
 6   1         -1.097319960594       -0.854174017906       -1.110229969025
 7   1         -0.175074994564        1.294039964676        1.529189944267
 8   1         -0.334452003241        1.760849952698        0.519460022449
 9   1         -1.165070056915        1.143859982491        0.897659003735
10   1          0.125731006265       -0.111441001296        1.887760043144
11   1         -1.093389987946        0.093538500369       -0.572335004807
12   1         -0.111023001373       -1.318410038948        0.462060004473
13   1          0.953465998173        0.504106998444        1.464339971542
14   1         -0.196498006582       -0.933763980865       -1.754400014877
15   1         -0.741949021816        0.054981898516       -1.669379949570
16   1         -1.145140051842       -0.990037977695        0.000610303017
17   1         -1.348870038986        0.087070800364        0.503901004791
18   1         -0.747206985950        1.643790006638       -0.532864987850
19   1         -1.570160031319        0.994462013245       -0.135443001986
20   1          0.693897008896       -1.782989978790       -0.218480005860
21   1         -0.734202027321       -0.692422986031        1.113720059395
22   1          0.393339991570        0.924703001976        0.664520025253
23   1          1.167449951172       -0.558257997036        1.582949995995
24   1          0.867601990700        0.876815021038       -1.074620008469
25   1         -0.388258010149       -0.281302988529        0.171968996525
26   1          1.551659941673       -1.062080025673       -0.301582008600
27   1         -0.250533998013       -1.368860006332       -0.625020027161
28   1          0.319315999746        1.429190039635       -0.304462999105
29   1         -1.283949971199        0.950456023216       -1.224410057068
30   1          0.417382985353       -0.251024007797        0.844031989574
31   1          0.463494986296        0.013738400303       -1.647680044174
32   1          0.222752004862       -1.136190056801        1.487020015717
33   1          1.296949982643        0.918682992458       -0.027177000418
34   1         -0.140275999904       -0.333133012056       -0.855859994888
35   1         -0.229578003287        0.744086980820       -0.985140979290
36   1         -0.524031996727        0.775025010109        0.075983598828
37   1          0.420801013708        0.327968001366       -0.210754007101
38   1          0.544184029102       -0.718234002590       -0.135839000344
