 #

 38 atoms
 1 atom types

    -11.5855         11.5719     xlo xhi
    -11.9248         11.5335     ylo yhi
    -11.8696         11.8263     zlo zhi
  0.0 0.0 0.0 xy xz yz


  Atoms

 1   1          1.364449977875       -0.441379010677        1.268509984016
 2   1          0.229310005903       -1.924839973450       -0.406226009130
 3   1          1.276250004768        0.443547010422        0.579909026623
 4   1          1.571920037270        0.335207998753       -0.511861979961
 5   1         -0.519299983978        0.294631987810        1.657850027084
 6   1         -0.624894976616       -1.159729957581       -0.570751011372
 7   1         -0.165897995234        1.324970006943        1.450350046158
 8   1         -0.354039013386        1.514289975166        0.251850992441
 9   1         -1.097460031509        1.080919981003        0.933908998966
10   1          0.338528990746       -0.527662992477        1.826339960098
11   1         -1.295750021935       -0.253309011459       -0.450594007969
12   1         -0.950725018978       -0.354027003050       -1.518010020256
13   1          1.360749959946       -0.532985985279        0.112361997366
14   1          0.240095004439       -1.195930004120       -1.266510009766
15   1          0.254716992378       -0.217434003949       -1.869619965553
16   1         -1.259750008583       -1.031020045280        0.361829996109
17   1         -1.232929944992        0.033148501068        0.719367980957
18   1         -1.049810051918        1.533529996872       -0.622856974602
19   1         -1.585520029068        0.763984978199       -0.017156699672
20   1          1.244580030441       -1.449020028114       -0.546034991741
21   1         -0.548394978046       -0.682310998440        1.188539981842
22   1          0.619745016098        1.298310041428        0.709667026997
23   1          0.887205004692       -1.393360018730        0.606712996960
24   1          0.657773017883        0.574171006680       -1.161200046539
25   1         -0.429356008768       -0.364998012781        0.149821996689
26   1          0.991559028625       -0.444180995226       -1.000570058823
27   1         -0.219870999455       -1.417359948158        0.469150990248
28   1          0.035399198532        1.392300009727       -0.773202002048
29   1         -1.416650056839        0.604098975658       -1.105800032616
30   1          0.438410013914       -0.384786009789        0.750783979893
31   1         -0.394989997149        0.643221020699       -1.466230034828
32   1          0.592885971069        0.467121005058        1.448340058327
33   1          0.991888999939        1.215780019760       -0.292371004820
34   1         -0.118516996503       -0.223766997457       -0.873248994350
35   1         -0.563265025616        0.591408014297       -0.342846006155
36   1         -0.172615006566        0.527104020119        0.669956982136
37   1          0.500855982304        0.238128006458       -0.139335006475
38   1          0.403412997723       -0.877774000168       -0.220816999674
