 #

 38 atoms
 1 atom types

    -11.5926         11.5614     xlo xhi
    -11.5533         11.6047     ylo yhi
    -11.7445         11.8850     zlo zhi
  0.0 0.0 0.0 xy xz yz


  Atoms

 1   1          0.918054997921        0.241827994585        1.738180041313
 2   1          0.400020003319       -1.511180043221       -0.808659970760
 3   1          1.140699982643        0.593173980713        0.718638002872
 4   1          1.561390042305       -0.109894998372       -0.064127802849
 5   1         -0.300226002932        0.087793402374        1.601979970932
 6   1         -0.668356001377       -1.143700003624       -0.651278972626
 7   1         -0.540952026844        1.571460008621        0.699252009392
 8   1         -0.519420981407        1.413509964943       -0.372905999422
 9   1         -1.051980018616        0.823058009148        1.296149969101
10   1          0.423216998577       -0.718766987324        1.884979963303
11   1         -1.297829985619       -0.298155009747       -0.263179987669
12   1         -0.852514028549       -0.238729000092       -1.303470015526
13   1          1.448840022087       -0.480201989412        0.981580018997
14   1         -0.623857975006        0.992684006691       -1.400419950485
15   1          0.778105974197       -0.674627006054       -1.744510054588
16   1         -1.122290015221       -1.196380019188        0.365545004606
17   1         -1.092249989510       -0.176234006882        0.825968027115
18   1         -1.592579960823        1.604670047760       -0.420722007751
19   1         -1.261999964714        0.743718981743        0.188598006964
20   1          1.345890045166       -0.897624015808       -0.841252982616
21   1         -0.358723998070       -0.948568999767        1.131399989128
22   1          0.414447009563        1.274580001831        0.207352995872
23   1          0.685015022755       -1.314919948578        1.005069971085
24   1          1.066799998283        0.147697001696       -1.050519943237
25   1         -0.298469990492       -0.490967988968        0.135890007019
26   1         -0.230535998940       -1.075580000877       -1.660439968109
27   1         -0.074080497026       -1.553249955177        0.212730005383
28   1          0.365815997124        0.982529997826       -0.880514979362
29   1         -1.488240003586        0.592486023903       -0.877987980843
30   1          0.423480004072       -0.222985997796        0.883306980133
31   1          0.106280997396        0.215529993176       -1.652330040932
32   1          0.263085991144        1.016770005226        1.300099968910
33   1          1.334929943085        0.950245022774       -0.324400007725
34   1          0.179235994816       -0.466576993465       -0.835011005402
35   1         -0.459922999144        0.360031008720       -0.514145970345
36   1         -0.289617002010        0.510617971420        0.546710014343
37   1          0.528719007969        0.229348003864       -0.098867498338
38   1          0.739826977253       -0.833405017853        0.041324499995
