 #

 38 atoms
 1 atom types

    -11.6182         11.4914     xlo xhi
    -11.5892         11.5391     ylo yhi
    -11.9543         11.7849     zlo zhi
  0.0 0.0 0.0 xy xz yz


  Atoms

 1   1          1.240229964256       -0.066951297224        1.534160017967
 2   1          0.429448008537       -1.589249968529       -0.756649017334
 3   1          1.243749976158        0.480055004358        0.574196994305
 4   1          1.406430006027       -0.082367502153       -0.394207000732
 5   1         -0.341360986233        0.053669199347        1.589380025864
 6   1         -0.799472987652       -1.027750015259       -0.675796985626
 7   1         -0.259474009275        1.539080023766        1.159759998322
 8   1         -0.549081027508        1.505789995193        0.084370203316
 9   1         -1.094230055809        0.851072013378        1.365219950676
10   1          0.414139002562       -0.748965978622        1.784909963608
11   1         -1.418089985847       -0.193412005901       -0.232608005404
12   1         -1.028609991074       -0.118574000895       -1.272600054741
13   1          1.427620053291       -0.607433021069        0.576029002666
14   1         -0.154294997454       -1.121440052986       -1.565879940987
15   1          0.275651991367       -0.188400000334       -1.954270005226
16   1         -1.232139945030       -1.113759994507        0.348834991455
17   1         -1.164299964905       -0.129226997495        0.859704971313
18   1         -0.829463005066        1.470950007439       -0.987695991993
19   1         -1.371410012245        0.794978022575        0.284161001444
20   1          1.491430044174       -1.223060011864       -0.372826993465
21   1         -0.407950013876       -0.923538029194        1.071089982986
22   1          0.497830003500        1.290879964828        0.390839993954
23   1          0.619463026524       -1.301339983940        0.833518028259
24   1          0.777866005898        0.411442011595       -1.165930032730
25   1         -0.412744998932       -0.381018012762        0.119474999607
26   1          0.921046972275       -0.701089978218       -1.187440037727
27   1         -0.207999005914       -1.476369976997        0.132038995624
28   1          0.213384002447        1.248399972916       -0.684156000614
29   1         -1.618160009384        0.722766995430       -0.814743995667
30   1          0.410903990269       -0.212750002742        0.821519017220
31   1         -0.264133006334        0.647946000099       -1.479439973831
32   1          0.490233004093        0.740792989731        1.353649973869
33   1          1.258939981461        1.027950048447       -0.384202986956
34   1         -0.030601799488       -0.276030987501       -0.889065027237
35   1         -0.599038004875        0.526301026344       -0.444088011980
36   1         -0.330193996429        0.574799001217        0.620428025723
37   1          0.419838011265        0.331508010626       -0.127167001367
38   1          0.574536979198       -0.735664010048       -0.114524997771
