 #

 38 atoms
 1 atom types

    -11.6454         11.5783     xlo xhi
    -11.8418         11.9156     ylo yhi
    -11.5382         11.7780     zlo zhi
  0.0 0.0 0.0 xy xz yz


  Atoms

 1   1          0.491181999445        0.287791997194        1.778040051460
 2   1          1.442549943924       -0.848954975605       -0.623552024364
 3   1          1.336189985275        0.369877994061        1.094570040703
 4   1         -0.209235996008        1.292410016060       -1.160490036011
 5   1          1.198809981346        0.291745990515       -0.506780982018
 6   1         -0.569001972675       -1.232669949532       -0.710928976536
 7   1         -1.165969967842       -0.530252993107        0.881555020809
 8   1          0.437489986420        1.915639996529        0.781597018242
 9   1         -0.887324988842        1.251399993896        0.612895011902
10   1          0.051833000034       -1.418380022049        1.010450005531
11   1         -1.645400047302        0.211713999510       -0.809225976467
12   1         -0.763707995415        0.402655005455       -1.538169980049
13   1         -0.858299016953        0.457727998495        1.392269968987
14   1         -1.237820029259       -0.640169024467       -1.351109981537
15   1         -0.140572994947       -0.601361989975       -1.507629990578
16   1          0.018187899143       -1.841840028763       -0.019187999889
17   1         -1.605949997902        0.354981988668        0.300455987453
18   1          0.822620987892        1.318470001221       -0.769771993160
19   1         -0.101861998439        1.615170001984       -0.098888099194
20   1          1.578289985657       -0.348331004381        0.329809010029
21   1         -0.966458022594       -1.539989948273        0.403753995895
22   1          0.933331012726        1.283740043640        1.515869975090
23   1          0.909817993641       -0.662123024464        1.233749985695
24   1          0.956072986126       -0.525946974754       -1.533079981804
25   1         -1.372550010681       -0.669432997704       -0.176248997450
26   1          0.511994004250       -1.420560002327       -0.933495998383
27   1          0.780467987061       -1.098500013351        0.219169005752
28   1          0.955455005169        1.033800005913        0.298626989126
29   1         -0.911289989948        0.906584978104       -0.424831002951
30   1         -0.148950994015       -0.360754013062        1.213220000267
31   1          0.361564993858        0.372465997934       -1.332229971886
32   1          0.096457600594        0.862296998501        0.925801992416
33   1          0.419025987387       -0.428972005844       -0.565496981144
34   1         -0.588241994381       -0.116642996669       -0.633069992065
35   1          0.145939007401        0.610042989254       -0.316235005856
36   1         -0.556945979595        0.229080006480        0.377644985914
37   1          0.540418028831       -0.019624300301        0.439848989248
38   1         -0.258116006851       -0.763073980808        0.201097995043
