 #

 38 atoms
 1 atom types

    -11.7487         11.6930     xlo xhi
    -11.4619         11.6845     ylo yhi
    -11.9225         11.8131     zlo zhi
  0.0 0.0 0.0 xy xz yz


  Atoms

 1   1          1.279600024223       -0.291705012321        1.424460053444
 2   1          0.503113985062       -1.461879968643        0.193582996726
 3   1          1.274430036545        0.328078985214        0.499684005976
 4   1          1.693019986153       -0.074701502919       -0.412851989269
 5   1         -0.427837997675        0.425972014666        1.813089966774
 6   1         -0.187447994947       -1.285670042038       -0.684682011604
 7   1         -0.282106012106        1.320530056953        1.155920028687
 8   1         -0.355511993170        1.299810051918        0.045871198177
 9   1         -1.266489982605        0.659263014793        1.159340023994
10   1          0.167392000556       -0.487634003162        1.686879992485
11   1         -1.132760047913       -0.589021027088       -0.669103980064
12   1         -0.930688023567        0.264115005732       -1.415840029716
13   1          1.454859972000       -0.802972018719        0.411610990763
14   1         -0.621411979198       -0.812139987946       -1.650840044022
15   1          0.062021698803        0.083256997168       -1.922500014305
16   1         -1.189679980278       -1.166769981384        0.349424004555
17   1         -1.399809956551       -0.078920498490        0.323383003473
18   1         -1.033400058746        1.261270046234       -0.878980994225
19   1         -1.422000050545        1.046319961548        0.155139997602
20   1          1.510740041733       -0.914707005024       -1.077800035477
21   1         -0.865050017834       -0.409265011549        1.210620045662
22   1          0.637996971607        1.235110044479        0.482174009085
23   1          0.837489008904       -1.279450058937        1.232529997826
24   1          0.881932020187        0.153780996799       -1.148550033569
25   1         -0.358877003193       -0.544728994370        0.090457700193
26   1          0.500822007656       -0.882138013840       -1.493149995804
27   1         -0.232020005584       -1.233729958534        0.946900010109
28   1          0.468836009502        1.684450030327       -0.541913986206
29   1         -1.748669981956        0.360280007124       -0.664219975471
30   1          0.487816005945       -0.389656990767        0.670319974422
31   1         -0.011945500039        0.842721998692       -1.060690045357
32   1          0.535708010197        0.518064022064        1.304559946060
33   1          1.248479962349        0.931371986866       -0.437532991171
34   1         -0.109136998653       -0.231089994311       -0.911023974419
35   1         -0.717213988304        0.385803014040       -0.339688003063
36   1         -0.338649988174        0.362356007099        0.674745976925
37   1          0.362066000700        0.380412012339       -0.137485995889
38   1          0.724394023418       -0.606797993183       -0.383834987879
