 #

 38 atoms
 1 atom types

    -11.5459         12.1236     xlo xhi
    -11.6156         11.8834     ylo yhi
    -11.6532         11.8363     zlo zhi
  0.0 0.0 0.0 xy xz yz


  Atoms

 1   1          1.076470017433        0.296032994986        0.833594024181
 2   1          0.430415987968       -1.459100008011       -0.261615008116
 3   1          1.227570056915       -0.093111999333       -0.232506006956
 4   1          1.509050011635        0.059469599277       -1.283619999886
 5   1         -0.842814028263        0.288783013821        1.836339950562
 6   1         -0.608049988747       -1.135329961777       -0.481622993946
 7   1         -0.527397990227        1.219650030136        1.356719970703
 8   1         -0.484591990709        1.883430004120        0.433369994164
 9   1         -1.451529979706        1.335940003395        0.716490983963
10   1          2.123559951782       -0.606100022793       -0.617915987968
11   1         -1.316849946976       -0.326611012220       -0.567759990692
12   1         -0.567414999008       -0.359782010317       -1.371129989624
13   1          0.736151993275       -1.615610003471        0.809823989868
14   1          0.107073001564       -1.263339996338       -1.318619966507
15   1          0.507929980755       -0.279440999031       -1.653229951859
16   1         -1.364109992981       -0.930619001389        0.367406994104
17   1         -1.320340037346        0.186159998178        0.835671007633
18   1         -0.939795017242        1.429180026054       -0.513584971428
19   1         -1.545889973640        0.623489975929       -0.138049006462
20   1          1.426220059395       -1.125689983368        0.084696702659
21   1         -0.766759991646       -0.641389012337        1.261989951134
22   1          0.395673990250        1.217300057411        0.746433019638
23   1          1.354709982872       -0.732873022556        1.121430039406
24   1          0.585310995579        0.554471015930       -0.947535991669
25   1         -0.518285989761       -0.282763987780        0.225663006306
26   1          1.115630030632       -0.931722998619       -0.966719985008
27   1         -0.302504003048       -1.321329951286        0.561097979546
28   1          0.128436997533        1.352419972420       -0.341688007116
29   1         -1.312829971313        0.593110978603       -1.248059988022
30   1         -0.027392599732        0.194617003202        1.089900016785
31   1         -0.286251991987        1.112540006638       -1.387279987335
32   1          0.289274990559       -0.817203998566        1.464759945869
33   1          1.176810026169        1.012859940529       -0.079431802034
34   1          0.220259994268       -0.433894008398       -0.601478993893
35   1         -0.481837987900        0.404042005539       -0.609561979771
36   1         -0.584604024887        0.815321028233        0.361440002918
37   1          0.326875001192        0.379483997822        0.081163696945
38   1          0.511806011200       -0.602387011051        0.433425009251
