 #

 38 atoms
 1 atom types

    -11.4777         11.4378     xlo xhi
    -11.8932         11.5353     ylo yhi
    -11.7349         11.8694     zlo zhi
  0.0 0.0 0.0 xy xz yz


  Atoms

 1   1          1.092090010643       -0.500616014004        1.498080015182
 2   1          0.318152010441       -1.386989951134       -1.165490031242
 3   1          1.228569984436        0.366418004036        0.549022018909
 4   1          1.386989951134       -0.143512994051       -0.465420007706
 5   1          0.085128098726       -0.135666996241        1.869369983673
 6   1         -1.305250048637       -0.904374003410        0.253286004066
 7   1         -0.193255007267        1.535339951515        1.114820003510
 8   1         -0.479139000177        1.530339956284        0.034325201064
 9   1         -0.641394019127        0.630331993103        1.584050059319
10   1         -0.682310998440       -0.365128010511        1.069159984589
11   1         -1.212910056114       -0.305081009865       -0.703667998314
12   1         -0.568015992641       -1.212239980698       -0.570896983147
13   1          1.437770009041       -0.691690027714        0.449864000082
14   1         -0.828576028347       -0.276645988226       -1.734930038452
15   1          0.765040993690       -1.469840049744        0.684725999832
16   1          0.120298996568       -1.132959961891        1.493389964104
17   1         -1.306339979172        0.210631996393        0.293204009533
18   1         -0.749158978462        1.529700040817       -1.047399997711
19   1         -1.201640009880        1.181439995766        0.793615996838
20   1          1.026450037956       -0.620305001736       -1.358160018921
21   1          0.293038994074       -1.893149971962       -0.207679003477
22   1          0.552067995071        1.244330048561        0.349891990423
23   1         -0.287656992674       -1.268210053444        0.499848991632
24   1          0.788663983345        0.429565995932       -1.225419998169
25   1         -0.419144988060       -0.330891013145        0.016530899331
26   1         -1.338510036469        0.620275974274       -1.290159940720
27   1          1.354200005531       -1.338840007782       -0.526300013065
28   1          0.273476004601        1.251999974251       -0.723757028580
29   1         -1.477679967880        1.132339954376       -0.293484985828
30   1          0.364479988813       -0.311394006014        0.749284982681
31   1         -0.242391005158        0.656244993210       -1.540179967880
32   1          0.495310008526        0.671721994877        1.295040011406
33   1          1.306710004807        0.958847999573       -0.399598002434
34   1         -0.026453200728       -0.300572991371       -1.000720024109
35   1         -0.568338990211        0.576315999031       -0.509281992912
36   1         -0.299050986767        0.578323006630        0.559678971767
37   1          0.435750007629        0.294331997633       -0.192265003920
38   1          0.503041028976       -0.810366988182       -0.202373996377
