 #

 38 atoms
 1 atom types

    -11.5272         11.5880     xlo xhi
    -11.7713         11.4785     ylo yhi
    -11.8903         11.8407     zlo zhi
  0.0 0.0 0.0 xy xz yz


  Atoms

 1   1          1.117570042610        0.056693598628        1.536229968071
 2   1         -0.194361001253       -1.400390028954       -0.591776013374
 3   1          1.182299971581        0.629150986671        0.586112022400
 4   1          1.311830043793       -0.184597000480       -0.109039999545
 5   1          0.079395800829       -0.124099999666        1.840690016747
 6   1         -1.287799954414       -0.964164972305        0.264102995396
 7   1         -0.520807981491        1.478520035744        0.960484981537
 8   1         -0.538981974125        1.368119955063       -0.153138995171
 9   1         -0.769436001778        0.527536988258        1.511999964714
10   1         -0.578844010830       -0.510872006416        1.070870041847
11   1         -1.397830009460        0.063491299748       -0.142311006784
12   1         -0.933103024960       -0.642035007477       -0.884868979454
13   1          1.326750040054       -0.752977013588        0.819267988205
14   1         -0.476002991199        0.003156289924       -1.685979962349
15   1          0.479914993048       -0.535219013691       -1.890329957008
16   1          0.876425981522       -1.771329998970        0.616988003254
17   1         -1.527230024338       -0.020493099466        0.921710014343
18   1         -0.558016002178        1.205919981003       -1.334740042686
19   1         -1.408830046654        0.998255014420        0.490541011095
20   1          0.880568981171       -1.205229997635       -1.002269983292
21   1         -0.277393996716       -1.429839968681        0.518637001514
22   1          0.417079001665        1.370249986649        0.364502996206
23   1          0.386981993914       -1.049399971962        1.309120059013
24   1          1.220460057259       -0.144161999226       -1.173670053482
25   1         -0.386709988117       -0.448543012142        0.020067399368
26   1         -1.464280009270        0.231398999691       -1.276759982109
27   1          1.587960004807       -1.267619967461       -0.137958005071
28   1          0.379216998816        1.437790036201       -0.724198997021
29   1         -1.460150003433        1.082059979439       -0.618143022060
30   1          0.401210993528       -0.140245005488        0.729462027550
31   1          0.391063004732        0.552016973495       -1.322160005569
32   1          0.293080985546        0.788757979870        1.271819949150
33   1          1.304049968719        0.826623976231       -0.579026997089
34   1          0.181747004390       -0.399803996086       -0.865447998047
35   1         -0.541212975979        0.393536001444       -0.660100996494
36   1         -0.458916008472        0.489401012659        0.481115996838
37   1          0.398068994284        0.419416010380       -0.186031997204
38   1          0.564249992371       -0.931079983711        0.024222899228
