 #

 38 atoms
 1 atom types

    -11.5404         11.5852     xlo xhi
    -11.5796         11.7603     ylo yhi
    -11.8546         11.8703     zlo zhi
  0.0 0.0 0.0 xy xz yz


  Atoms

 1   1          0.582650005817        0.681777000427        1.410740017891
 2   1          0.383798986673       -1.575000047684       -0.770295977592
 3   1          1.364459991455        0.413322001696        0.667042016983
 4   1          1.585190057755       -0.178875997663       -0.227612003684
 5   1         -0.285705000162        0.052867200226        1.585459947586
 6   1         -0.645367980003       -1.203289985657       -0.601839005947
 7   1         -0.175747007132        1.445770025253        1.150509953499
 8   1         -0.172633007169        1.760339975357        0.070920303464
 9   1         -1.126189947128        1.625069975853        0.597911000252
10   1          0.555449008942       -0.626051008701        1.870270013809
11   1         -1.277590036392       -0.388069987297       -0.232763007283
12   1         -0.840204000473       -0.310238003731       -1.262230038643
13   1          1.537420034409       -0.657148003578        0.782612025738
14   1         -0.798587977886        0.998986005783       -1.467519998550
15   1          0.631769001484       -0.511982977390       -1.854619979858
16   1         -1.073529958725       -1.250519990921        0.426266998053
17   1         -1.056180000305       -0.236499994993        0.859934985638
18   1         -1.001539945602        1.365360021591       -0.478940010071
19   1         -1.304589986801        0.604655981064        0.227486997843
20   1          1.210809946060       -0.879315018654       -0.994526028633
21   1         -0.286974012852       -0.965820014477        1.163939952850
22   1          0.628596007824        1.160899996758        0.423207998276
23   1          0.724879026413       -1.346490025520        1.020779967308
24   1          1.014119982719        0.209527000785       -1.090010046959
25   1         -0.267529010773       -0.502991974354        0.156175002456
26   1         -0.220188006759       -1.165189981461       -1.620020031929
27   1         -0.039035100490       -1.579570055008        0.256273001432
28   1          0.296371012926        1.083009958267       -0.693645000458
29   1         -1.540439963341        0.468629002571       -0.857138991356
30   1          0.503795027733       -0.251998990774        0.865299999714
31   1          0.028305899352        0.337161004543       -1.501909971237
32   1         -1.057899951935        0.781006991863        1.301609992981
33   1          1.371620059013        0.919507980347       -0.338961988688
34   1          0.173328995705       -0.495254993439       -0.833015024662
35   1         -0.485159009695        0.365575999022       -0.491046994925
36   1         -0.255961000919        0.523341000080        0.571412026882
37   1          0.553382992744        0.204577997327       -0.102366000414
38   1          0.765094995499       -0.877063989639        0.010604199953
