 #

 38 atoms
 1 atom types

    -11.7321         11.7513     xlo xhi
    -11.3581         11.3726     ylo yhi
    -11.8553         12.1316     zlo zhi
  0.0 0.0 0.0 xy xz yz


  Atoms

 1   1          0.159492999315        0.140707001090        2.131619930267
 2   1          1.285220026970       -1.247709989548       -0.936230003834
 3   1          1.327209949493        0.312656998634        1.085729956627
 4   1         -0.295917987823        1.327620029449       -1.059409976006
 5   1          1.385800004005        0.441518992186       -1.124490022659
 6   1         -0.605951011181       -1.358109951019       -0.470616996288
 7   1         -1.272429943085       -0.341333985329        0.912675023079
 8   1          0.736006975174        1.121479988098        0.578680992126
 9   1         -1.257329940796        1.362730026245        0.099422097206
10   1          0.269362986088       -1.310580015182        0.897899985313
11   1         -1.705569982529        0.150592997670       -0.923968970776
12   1         -0.802846014500        0.397015005350       -1.543120026588
13   1         -0.769281983376        0.411006003618        1.612849950790
14   1         -1.089679956436       -0.705142021179       -1.289800047874
15   1         -0.158691003919       -0.405905991793       -1.855340003967
16   1          0.435263007879       -1.233369946480       -0.170555993915
17   1         -1.732079982758        0.382481008768        0.176241993904
18   1          0.735871016979        1.193379998207       -0.575518012047
19   1         -0.180419996381        1.372640013695        0.035876199603
20   1          1.751279950142       -0.592966973782       -0.151638999581
21   1         -0.837050974369       -1.323179960251        0.627231001854
22   1          0.701889991760        0.999601006508        1.690639972687
23   1          0.775090992451       -0.555148005486        1.542459964752
24   1          0.927725017071       -0.435757994652       -1.679960012436
25   1         -1.180930018425       -0.478964000940       -0.176741003990
26   1          0.221097007394       -1.204370021820       -1.233229994774
27   1          0.840098977089       -0.437795996666        0.456779986620
28   1          1.333789944649        0.429872006178       -0.020198399201
29   1         -0.783236026764        0.542230010033       -0.490601003170
30   1         -0.346462011337       -0.594833016396        1.437690019608
31   1          0.282175004482        0.418738007545       -1.228019952774
32   1         -0.222673997283        1.269530057907        1.140490055084
33   1          0.806303977966       -0.329021990299       -0.621734976768
34   1         -0.249469995499       -0.362053990364       -0.729566991329
35   1          0.227118000388        0.380966991186       -0.068941898644
36   1         -0.697476983070        0.494715005159        0.544139027596
37   1          0.222593992949        0.254759013653        1.032330036163
38   1         -0.235905006528       -0.487991005182        0.346928000450
