 #

 38 atoms
 1 atom types

    -11.4521         11.4285     xlo xhi
    -11.6995         11.6063     ylo yhi
    -11.8654         11.7852     zlo zhi
  0.0 0.0 0.0 xy xz yz


  Atoms

 1   1          0.984369993210       -0.101714998484        1.605250000954
 2   1         -0.458880990744       -1.185189962387       -0.571963012218
 3   1          1.153509974480        0.467413008213        0.667842984200
 4   1          1.428490042686       -0.073424801230       -0.272780001163
 5   1         -0.115188002586       -0.176660999656        1.785179972649
 6   1         -1.281839966774       -0.887845993042        0.128205999732
 7   1         -0.360670000315        1.606289982796        1.052410006523
 8   1         -0.508728981018        1.588539958000       -0.059007298201
 9   1         -0.795507013798        0.683264017105        1.506610035896
10   1         -0.606714010239       -1.148929953575        1.558820009232
11   1         -1.352120041847        0.244804993272        0.078022003174
12   1         -1.084419965744       -0.308625012636       -0.873061001301
13   1          1.260660052299       -0.646120011806        0.661462008953
14   1          0.011128799990       -1.183259963989       -1.554509997368
15   1          0.879536986351       -0.521842002869       -1.635429978371
16   1          0.772297024727       -1.615949988365        0.415995985270
17   1         -0.838527023792       -0.263233006001        0.948848009109
18   1         -1.164420008659        0.621954023838       -1.468780040741
19   1         -1.313719987869        1.202640056610        0.625429987907
20   1          1.365409970284       -1.039420008659       -0.784233987331
21   1         -0.236689001322       -1.162969946861        0.522912025452
22   1          0.481238991022        1.320029973984        0.387378990650
23   1          0.486638993025       -1.069749951363        1.361649990082
24   1          0.930729985237        0.438953012228       -1.123010039330
25   1         -0.419577986002       -0.267903000116       -0.034439601004
26   1         -0.580628991127       -0.267675995827       -1.865440011024
27   1          0.495905995369       -1.699550032616       -0.673793971539
28   1          0.336149007082        1.299669981003       -0.728181004524
29   1         -1.452059984207        1.178069949150       -0.504262983799
30   1          0.269304007292       -0.187986001372        0.768997013569
31   1         -0.046139098704        0.677039980888       -1.585729956627
32   1          0.311273008585        0.754456996918        1.336549997330
33   1          1.324699997902        1.036540031433       -0.274545997381
34   1          0.052208099514       -0.237145006657       -0.988559007645
35   1         -0.520147025585        0.629167973995       -0.596498012543
36   1         -0.385562986135        0.652257978916        0.496921986341
37   1          0.442454010248        0.370754987001       -0.154021993279
38   1          0.535538971424       -0.726648986340       -0.160254001617
