 #

 38 atoms
 1 atom types

    -11.4272         11.6293     xlo xhi
    -11.6469         11.6994     ylo yhi
    -12.0386         11.7817     zlo zhi
  0.0 0.0 0.0 xy xz yz


  Atoms

 1   1          0.718133985996        0.398277997971        1.599599957466
 2   1          0.230507999659       -1.403839945793       -0.965537011623
 3   1          1.448160052299        0.192204996943        0.774227976799
 4   1          1.596349954605       -0.228185996413       -0.280905008316
 5   1         -0.242693006992        1.248149991035        1.299849987030
 6   1         -0.747759997845       -1.035249948502       -0.587244987488
 7   1         -0.109916001558        1.699390053749        0.330686986446
 8   1         -1.427170038223        0.760963976383       -0.349840998650
 9   1         -0.757582008839        0.420596003532        1.781200051308
10   1         -0.029864899814       -0.404146999121        1.781730055809
11   1         -1.230700016022       -0.246647000313        0.052448801696
12   1         -0.931877970695       -0.023118399084       -0.978003025055
13   1          1.629349946976       -0.897243976593        0.591098010540
14   1         -0.642517983913        0.191251993179       -2.038619995117
15   1          0.407835990191       -0.125563994050       -1.807790040970
16   1         -1.065670013428       -1.286489963531        0.432410985231
17   1         -0.908998012543       -0.418644011021        1.090880036354
18   1         -0.596720993519        1.448189973831       -0.615611016750
19   1         -1.072409987450        0.632211983204        0.721252024174
20   1          1.075170040131       -0.717743992805       -1.139919996262
21   1         -0.181069001555       -1.257740020752        1.101709961891
22   1          0.688703000546        1.026309967041        0.687426984310
23   1          0.800082981586       -1.625699996948        0.750962972641
24   1          0.952335000038        0.359495013952       -0.971176028252
25   1         -0.212356001139       -0.573925971985        0.240130007267
26   1         -0.437783986330       -0.804490983486       -1.614289999008
27   1         -0.076592102647       -1.646870017052        0.065398201346
28   1          0.452342003584        1.136929988861       -0.395812988281
29   1         -1.161360025406        0.957638978958       -1.419499993324
30   1          0.648368000984       -0.540552020073        0.930155992508
31   1         -0.098774202168        0.658174991608       -1.203169941902
32   1         -1.198850035667        1.631360054016        0.306838989258
33   1          1.468989968300        0.857788980007       -0.105754002929
34   1          0.098447203636       -0.326184004545       -0.766231000423
35   1         -0.389485001564        0.472889006138       -0.138118997216
36   1         -0.077779896557        0.267168998718        0.889163970947
37   1          0.624722003937        0.137821003795        0.057609699667
38   1          0.758440017700       -0.934458017349       -0.107267998159
