 #

 38 atoms
 1 atom types

    -11.6604         11.6703     xlo xhi
    -11.6135         11.7212     ylo yhi
    -11.9644         11.8052     zlo zhi
  0.0 0.0 0.0 xy xz yz


  Atoms

 1   1          1.109910011292       -0.013184499927        1.585109949112
 2   1          0.208572000265       -1.455459952354       -0.998670995235
 3   1          1.065520048141        0.581355988979        0.659478008747
 4   1          1.466519951820       -0.081666700542       -0.408549994230
 5   1         -0.408493995667       -0.007231399883        1.707460045815
 6   1         -0.812493979931       -1.120669960976       -0.716966986656
 7   1         -0.149801999331        1.718590021133        1.153480052948
 8   1         -0.482394009829        1.721169948578        0.103316999972
 9   1         -0.876730024815        0.925621986389        1.330610036850
10   1          0.367316991091       -0.788677990437        1.805220007896
11   1         -1.403530001640       -0.321184992790       -0.196075007319
12   1         -1.050029993057       -0.177494004369       -1.246490001678
13   1          1.306550025940       -0.489560991526        0.592935025692
14   1         -0.450300991535       -0.966485977173       -1.755660057068
15   1          0.330058008432       -0.212674006820       -1.964390039444
16   1         -1.178310036659       -1.249490022659        0.327730000019
17   1         -0.948791980743       -0.002489489969        0.751896977425
18   1         -0.876250982285        1.339660048485       -0.849458992481
19   1         -1.247859954834        0.937667012215        0.250678002834
20   1          1.670310020447       -1.157739996910       -0.289472997189
21   1         -0.469626992941       -0.951461970806        1.096019983292
22   1          0.591435015202        1.520079970360        0.373319000006
23   1          0.550885975361       -1.254060029984        0.821937024593
24   1          0.778737008572        0.387905985117       -1.155679941177
25   1         -0.343935012817       -0.549639999866        0.077793598175
26   1          1.013290047646       -0.705089986324       -1.203199982643
27   1         -0.157693997025       -1.613459944725        0.054948300123
28   1          0.169538006186        1.137210011482       -0.572669029236
29   1         -1.660380005836        0.594226002693       -0.730871021748
30   1          0.279758006334       -0.176116004586        0.870250999928
31   1         -0.273755997419        0.583590984344       -1.434460043907
32   1          0.328002005816        0.774367988110        1.466330051422
33   1          1.237930059433        0.990275979042       -0.349449008703
34   1         -0.008066159673       -0.374256014824       -0.937083005905
35   1         -0.598378002644        0.376549005508       -0.406268000603
36   1         -0.175150007010        0.753988981247        0.511354982853
37   1          0.457958012819        0.190144002438       -0.137429997325
38   1          0.639692008495       -0.864296019077       -0.187041997910
