 #

 38 atoms
 1 atom types

    -11.5232         11.5878     xlo xhi
    -11.4654         11.3849     ylo yhi
    -12.0328         11.9624     zlo zhi
  0.0 0.0 0.0 xy xz yz


  Atoms

 1   1          1.286489963531       -0.155441999435        1.428349971771
 2   1         -0.091567397118       -1.340389966965       -0.712715029716
 3   1          1.269930005074        0.597847998142        0.603477001190
 4   1          1.397169947624       -0.241870000958       -0.797434985638
 5   1          0.274132996798       -0.653614997864        1.623119950294
 6   1         -0.935912013054       -1.191059947014        0.132146000862
 7   1         -0.350342988968        1.384920001030        1.045879960060
 8   1         -0.582894980907        1.369809985161       -0.053128100932
 9   1         -0.635936021805        0.420293986797        1.498370051384
10   1         -0.523460984230       -0.491737008095        0.905893027782
11   1         -1.167000055313       -0.093255102634        0.093452900648
12   1         -0.897427976131       -0.585255026817       -0.865431010723
13   1          1.587779998779       -0.384391993284        0.303615003824
14   1         -0.449692994356       -0.459986001253       -1.865730047226
15   1          0.653913974762       -0.233797997236       -2.032829999924
16   1         -0.521072983742       -1.465420007706        1.393450021744
17   1         -1.523190021515       -0.148432001472        1.147639989853
18   1         -0.772105991840        1.327690005302       -1.156440019608
19   1         -1.257449984550        0.839658021927        0.664771974087
20   1          0.877425014973       -1.118129968643       -1.315089941025
21   1          0.101496003568       -1.320940017700        0.511223018169
22   1          0.466641992331        1.260429978371        0.316442996264
23   1         -0.813434004784       -0.559843003750        1.962360024452
24   1          0.926315009594        0.568956971169       -1.310539960861
25   1         -0.169955998659       -0.465615004301       -0.091228999197
26   1         -1.169209957123        0.316987007856       -1.430289983749
27   1          1.090839982033       -1.152780056000        0.948155999184
28   1          0.261658012867        1.227740049362       -0.763482987881
29   1         -1.464400053024        0.810948014259       -0.448899000883
30   1          0.543506026268       -0.268422007561        0.655165016651
31   1         -0.106073997915        0.570478022099       -1.638939976692
32   1          0.427112996578        0.590843021870        1.307649970055
33   1          1.333719968796        1.076210021973       -0.405039995909
34   1          0.242173999548       -0.299131989479       -1.044190049171
35   1         -0.454313993454        0.421496003866       -0.608873009682
36   1         -0.254041999578        0.457715004683        0.456301987171
37   1          0.601936995983        0.302859991789       -0.241761997342
38   1          0.797246992588       -0.915371000767       -0.215416997671
