
     Program PWSCF v.7.0 starts on 14Nov2022 at 18:51:36 

     This program is part of the open-source Quantum ESPRESSO suite
     for quantum simulation of materials; please cite
         "P. Giannozzi et al., J. Phys.:Condens. Matter 21 395502 (2009);
         "P. Giannozzi et al., J. Phys.:Condens. Matter 29 465901 (2017);
         "P. Giannozzi et al., J. Chem. Phys. 152 154105 (2020);
          URL http://www.quantum-espresso.org", 
     in publications or presentations arising from this work. More details at
     http://www.quantum-espresso.org/quote

     Parallel version (MPI), running on     4 processors

     MPI processes distributed on     1 nodes
     R & G space division:  proc/nbgrp/npool/nimage =       4
     118578 MiB available memory on the printing compute node when the environment starts
 
     Waiting for input...
     Reading input from standard input

     Current dimensions of program PWSCF are:
     Max number of different atomic species (ntypx) = 10
     Max number of k-points (npk) =  40000
     Max angular momentum in pseudopotentials (lmaxx) =  4

     File ./pwscf.fire deleted, as requested
     file H.pbe-kjpaw_psl.1.0.0.UPF: wavefunction(s)  1S renormalized
     file C.pbe-n-kjpaw_psl.1.0.0.UPF: wavefunction(s)  2S 2P renormalized

     gamma-point specific algorithms are used

     Subspace diagonalization in iterative solution of the eigenvalue problem:
     a serial algorithm will be used

 
     Parallelization info
     --------------------
     sticks:   dense  smooth     PW     G-vecs:    dense   smooth      PW
     Min         455     455    113                44215    44215    5498
     Max         458     458    116                44234    44234    5504
     Sum        1829    1829    457               176909   176909   22001
 
     Using Slab Decomposition
 


     bravais-lattice index     =            8
     lattice parameter (alat)  =      12.0000  a.u.
     unit-cell volume          =    5184.0000 (a.u.)^3
     number of atoms/cell      =            6
     number of atomic types    =            3
     number of electrons       =        21.00
     number of Kohn-Sham states=           15
     kinetic-energy cutoff     =      40.0000  Ry
     charge density cutoff     =     160.0000  Ry
     scf convergence threshold =      1.0E-06
     mixing beta               =       0.7000
     number of iterations used =            8  plain     mixing
     energy convergence thresh.=      1.0E-06
     force convergence thresh. =      5.0E-04
     Exchange-correlation=  SLA  PW   PBE  PBE
                           (   1   4   3   4   0   0   0)
     nstep                     =          455


     celldm(1)=  12.000000  celldm(2)=   1.000000  celldm(3)=   3.000000
     celldm(4)=   0.000000  celldm(5)=   0.000000  celldm(6)=   0.000000

     crystal axes: (cart. coord. in units of alat)
               a(1) = (   1.000000   0.000000   0.000000 )  
               a(2) = (   0.000000   1.000000   0.000000 )  
               a(3) = (   0.000000   0.000000   3.000000 )  

     reciprocal axes: (cart. coord. in units 2 pi/alat)
               b(1) = (  1.000000  0.000000  0.000000 )  
               b(2) = (  0.000000  1.000000  0.000000 )  
               b(3) = (  0.000000  0.000000  0.333333 )  


     PseudoPot. # 1 for H  read from file:
     ./H.pbe-kjpaw_psl.1.0.0.UPF
     MD5 check sum: 558557d8d69ab0f531dece9dcd46538f
     Pseudo is Projector augmented-wave, Zval =  1.0
     Generated using &quot;atomic&quot; code by A. Dal Corso  v.6.4.1
     Shape of augmentation charge: PSQ
     Using radial grid of  929 points,  2 beta functions with: 
                l(1) =   0
                l(2) =   0
     Q(r) pseudized with 0 coefficients 


     PseudoPot. # 2 for C  read from file:
     ./C.pbe-n-kjpaw_psl.1.0.0.UPF
     MD5 check sum: 3743bebd73e999bfc7b4fa8d693ddc7b
     Pseudo is Projector augmented-wave + core cor, Zval =  4.0
     Generated using &quot;atomic&quot; code by A. Dal Corso  v.6.4.1
     Shape of augmentation charge: PSQ
     Using radial grid of 1073 points,  4 beta functions with: 
                l(1) =   0
                l(2) =   0
                l(3) =   1
                l(4) =   1
     Q(r) pseudized with 0 coefficients 


     PseudoPot. # 3 for Cl read from file:
     ./Cl.pbe-n-van.UPF
     MD5 check sum: 37d17b79490292b7cf0a9c9387775579
     Pseudo is Ultrasoft + core correction, Zval =  7.0
     Generated by new atomic code, or converted to UPF format
     Using radial grid of  909 points,  4 beta functions with: 
                l(1) =   0
                l(2) =   0
                l(3) =   1
                l(4) =   1
     Q(r) pseudized with  8 coefficients,  rinner =    0.900   0.900   0.900


     atomic species   valence    mass     pseudopotential
        H              1.00     1.00783     H ( 1.00)
        C              4.00    12.00000     C ( 1.00)
        Cl             7.00    35.45270     Cl( 1.00)

     No symmetry found



   Cartesian axes

     site n.     atom                  positions (alat units)
         1           C   tau(   1) = (  -0.0000002  -0.0043503   0.7432921  )
         2           Cl  tau(   2) = (   0.0000011   0.0204647   1.0235016  )
         3           H   tau(   3) = (   0.1414496   0.0722905   0.6818542  )
         4           H   tau(   4) = (  -0.1414495   0.0722916   0.6818549  )
         5           H   tau(   5) = (  -0.0000013  -0.1720252   0.7038388  )
         6           Cl  tau(   6) = (   0.0000003   0.0115566   0.2139995  )

     number of k points=     1  Gaussian smearing, width (Ry)=  0.0500
                       cart. coord. in units 2pi/alat
        k(    1) = (   0.0000000   0.0000000   0.0000000), wk =   2.0000000

     Dense  grid:    88455 G-vectors     FFT dimensions: (  50,  50, 150)

     Estimated max dynamical RAM per process >      36.87 MB

     Estimated total dynamical RAM >     147.50 MB

     Check: negative core charge=   -0.000002

     Initial potential from superposition of free atoms

     starting charge      20.9999, renormalised to      21.0000

     negative rho (up, down):  3.264E-03 0.000E+00
     Starting wfcs are   15 randomized atomic wfcs
     Checking if some PAW data can be deallocated... 

     total cpu time spent up to now is        0.3 secs

     Self-consistent Calculation

     iteration #  1     ecut=    40.00 Ry     beta= 0.70
     Davidson diagonalization with overlap
     ethr =  1.00E-02,  avg # of iterations =  4.0

     negative rho (up, down):  4.271E-03 0.000E+00

     total cpu time spent up to now is        0.4 secs

     total energy              =     -85.84267477 Ry
     estimated scf accuracy    <       0.44888075 Ry

     iteration #  2     ecut=    40.00 Ry     beta= 0.70
     Davidson diagonalization with overlap
     ethr =  2.14E-03,  avg # of iterations =  7.0

     negative rho (up, down):  4.292E-03 0.000E+00

     total cpu time spent up to now is        0.5 secs

     total energy              =     -85.91725791 Ry
     estimated scf accuracy    <       0.31105672 Ry

     iteration #  3     ecut=    40.00 Ry     beta= 0.70
     Davidson diagonalization with overlap
     ethr =  1.48E-03,  avg # of iterations =  2.0

     negative rho (up, down):  4.327E-03 0.000E+00

     total cpu time spent up to now is        0.6 secs

     total energy              =     -85.88391200 Ry
     estimated scf accuracy    <       0.64778661 Ry

     iteration #  4     ecut=    40.00 Ry     beta= 0.70
     Davidson diagonalization with overlap
     ethr =  1.48E-03,  avg # of iterations =  1.0

     negative rho (up, down):  4.587E-03 0.000E+00

     total cpu time spent up to now is        0.7 secs

     total energy              =     -85.99400067 Ry
     estimated scf accuracy    <       0.06524438 Ry

     iteration #  5     ecut=    40.00 Ry     beta= 0.70
     Davidson diagonalization with overlap
     ethr =  3.11E-04,  avg # of iterations =  1.0

     negative rho (up, down):  4.690E-03 0.000E+00

     total cpu time spent up to now is        0.8 secs

     total energy              =     -85.98920794 Ry
     estimated scf accuracy    <       0.04322757 Ry

     iteration #  6     ecut=    40.00 Ry     beta= 0.70
     Davidson diagonalization with overlap
     ethr =  2.06E-04,  avg # of iterations =  1.0

     negative rho (up, down):  4.702E-03 0.000E+00

     total cpu time spent up to now is        0.9 secs

     total energy              =     -85.98701830 Ry
     estimated scf accuracy    <       0.02112721 Ry

     iteration #  7     ecut=    40.00 Ry     beta= 0.70
     Davidson diagonalization with overlap
     ethr =  1.01E-04,  avg # of iterations =  8.0

     negative rho (up, down):  4.738E-03 0.000E+00

     total cpu time spent up to now is        1.0 secs

     total energy              =     -85.98713624 Ry
     estimated scf accuracy    <       0.00257103 Ry

     iteration #  8     ecut=    40.00 Ry     beta= 0.70
     Davidson diagonalization with overlap
     ethr =  1.22E-05,  avg # of iterations =  2.0

     negative rho (up, down):  4.738E-03 0.000E+00

     total cpu time spent up to now is        1.2 secs

     total energy              =     -85.98751183 Ry
     estimated scf accuracy    <       0.00320484 Ry

     iteration #  9     ecut=    40.00 Ry     beta= 0.70
     Davidson diagonalization with overlap
     ethr =  1.22E-05,  avg # of iterations =  1.0

     negative rho (up, down):  4.744E-03 0.000E+00

     total cpu time spent up to now is        1.3 secs

     total energy              =     -85.98761259 Ry
     estimated scf accuracy    <       0.00013052 Ry

     iteration # 10     ecut=    40.00 Ry     beta= 0.70
     Davidson diagonalization with overlap
     ethr =  6.22E-07,  avg # of iterations =  1.0

     negative rho (up, down):  4.742E-03 0.000E+00

     total cpu time spent up to now is        1.4 secs

     total energy              =     -85.98762833 Ry
     estimated scf accuracy    <       0.00003266 Ry

     iteration # 11     ecut=    40.00 Ry     beta= 0.70
     Davidson diagonalization with overlap
     ethr =  1.56E-07,  avg # of iterations =  1.0

     negative rho (up, down):  4.743E-03 0.000E+00

     total cpu time spent up to now is        1.5 secs

     total energy              =     -85.98762910 Ry
     estimated scf accuracy    <       0.00000450 Ry

     iteration # 12     ecut=    40.00 Ry     beta= 0.70
     Davidson diagonalization with overlap
     ethr =  2.14E-08,  avg # of iterations =  1.0

     negative rho (up, down):  4.744E-03 0.000E+00

     total cpu time spent up to now is        1.6 secs

     total energy              =     -85.98762860 Ry
     estimated scf accuracy    <       0.00000323 Ry

     iteration # 13     ecut=    40.00 Ry     beta= 0.70
     Davidson diagonalization with overlap
     ethr =  1.54E-08,  avg # of iterations =  1.0

     negative rho (up, down):  4.744E-03 0.000E+00

     total cpu time spent up to now is        1.7 secs

     End of self-consistent calculation

          k = 0.0000 0.0000 0.0000 ( 11001 PWs)   bands (ev):

   -21.5238 -18.9991 -16.7115 -10.8901 -10.8805 -10.3917  -7.3069  -7.3038
    -6.9931  -6.9616  -6.9603  -0.9661  -0.5564   0.3361   0.5130

     the Fermi energy is    -6.4541 ev

!    total energy              =     -85.98762861 Ry
     estimated scf accuracy    <       0.00000037 Ry
     smearing contrib. (-TS)   =      -0.05922375 Ry
     internal energy E=F+TS    =     -85.92840487 Ry

     convergence has been achieved in  13 iterations

     negative rho (up, down):  4.744E-03 0.000E+00
  * IN ARTn_QE::           6
 Elements:H  C  Cl 
     |> Initialize_ARTn()
     |> NPERP_LIMITATION:: Actual nperp 3
     |> NPERP_LIMITATION::List: 3 8 12 16 -1
 --------------------------------------------------
  * ARTn::UNITS::E2au::      1.0000     au2E      1.0000    
  * ARTn::UNITS::L2au::      1.0000     au2L      1.0000    
  * ARTn::UNITS::T2au::      1.0000     au2T      1.0000    
  * ARTn::UNITS::F2au::      1.0000     au2F      1.0000    
  * ARTn::UNITS::H2au::      1.0000     au2H      1.0000    
  * ARTn::UNITS::Mass::      911.44    
 --------------------------------------------------
 WARNING:: QE force threshold is lower than ARTn  5.000000000000000E-004
  1.000000000000000E-003

     Forces acting on atoms (cartesian axes, Ry/au):

     atom    1 type  2   force =     0.00000000    0.00000000   -0.27343327
     atom    2 type  3   force =     0.00000000    0.00000000    0.27343327
     atom    3 type  1   force =     0.00000000    0.00000000    0.00000000
     atom    4 type  1   force =     0.00000000    0.00000000    0.00000000
     atom    5 type  1   force =     0.00000000    0.00000000    0.00000000
     atom    6 type  3   force =     0.00000000    0.00000000    1.36716636

     Total force =     1.420801     Total SCF correction =     0.000548

     Entering FIRE :       iteration =     1

     FIRE Parameters: P = 0.00000000, dt = 20.00, alpha = 0.000 nsteppos =   1 at step  1


ATOMIC_POSITIONS (angstrom)
C            -0.0000013583       -0.0276252096        4.6588945934
Cl            0.0000067823        0.1299532581        6.5604690329
H             0.8982225960        0.4590537360        4.3298606395
H            -0.8982221407        0.4590605845        4.3298649998
H            -0.0000080946       -1.0923819719        4.4694652354
Cl            0.0000022154        0.0733855829        1.6644446840



     Writing config-only to output data dir ./pwscf.save/
     NEW-OLD atomic charge density approx. for the potential

     Check: negative core charge=   -0.000002

     negative rho (up, down):  5.209E-03 0.000E+00

     total cpu time spent up to now is        1.9 secs

     Self-consistent Calculation

     iteration #  1     ecut=    40.00 Ry     beta= 0.70
     Davidson diagonalization with overlap
     ethr =  1.00E-06,  avg # of iterations = 10.0

     negative rho (up, down):  4.960E-03 0.000E+00

     total cpu time spent up to now is        2.1 secs

     total energy              =     -85.97528274 Ry
     estimated scf accuracy    <       0.00578271 Ry

     iteration #  2     ecut=    40.00 Ry     beta= 0.70
     Davidson diagonalization with overlap
     ethr =  2.75E-05,  avg # of iterations =  3.0

     negative rho (up, down):  4.959E-03 0.000E+00

     total cpu time spent up to now is        2.2 secs

     total energy              =     -85.96125702 Ry
     estimated scf accuracy    <       0.22047330 Ry

     iteration #  3     ecut=    40.00 Ry     beta= 0.70
     Davidson diagonalization with overlap
     ethr =  2.75E-05,  avg # of iterations =  2.0

     negative rho (up, down):  4.954E-03 0.000E+00

     total cpu time spent up to now is        2.3 secs

     total energy              =     -85.97702772 Ry
     estimated scf accuracy    <       0.01099903 Ry

     iteration #  4     ecut=    40.00 Ry     beta= 0.70
     Davidson diagonalization with overlap
     ethr =  2.75E-05,  avg # of iterations =  1.0

     negative rho (up, down):  4.937E-03 0.000E+00

     total cpu time spent up to now is        2.4 secs

     total energy              =     -85.97772598 Ry
     estimated scf accuracy    <       0.00063463 Ry

     iteration #  5     ecut=    40.00 Ry     beta= 0.70
     Davidson diagonalization with overlap
     ethr =  3.02E-06,  avg # of iterations =  1.0

     negative rho (up, down):  4.932E-03 0.000E+00

     total cpu time spent up to now is        2.5 secs

     total energy              =     -85.97777250 Ry
     estimated scf accuracy    <       0.00009692 Ry

     iteration #  6     ecut=    40.00 Ry     beta= 0.70
     Davidson diagonalization with overlap
     ethr =  4.62E-07,  avg # of iterations =  1.0

     negative rho (up, down):  4.932E-03 0.000E+00

     total cpu time spent up to now is        2.6 secs

     total energy              =     -85.97778009 Ry
     estimated scf accuracy    <       0.00000162 Ry

     iteration #  7     ecut=    40.00 Ry     beta= 0.70
     Davidson diagonalization with overlap
     ethr =  7.71E-09,  avg # of iterations =  2.0

     negative rho (up, down):  4.932E-03 0.000E+00

     total cpu time spent up to now is        2.7 secs

     End of self-consistent calculation

          k = 0.0000 0.0000 0.0000 ( 11001 PWs)   bands (ev):

   -20.9333 -19.0999 -16.9662 -10.9610 -10.9158  -9.9561  -7.3660  -7.3581
    -7.0452  -7.0204  -7.0177  -1.2584  -0.8812   0.2756   0.3996

     the Fermi energy is    -6.5103 ev

!    total energy              =     -85.97778013 Ry
     estimated scf accuracy    <       0.00000049 Ry
     smearing contrib. (-TS)   =      -0.05922449 Ry
     internal energy E=F+TS    =     -85.91855564 Ry

     convergence has been achieved in   7 iterations

     negative rho (up, down):  4.932E-03 0.000E+00
  * IN ARTn_QE::           6
 Elements:H  C  Cl 

     Forces acting on atoms (cartesian axes, Ry/au):

     atom    1 type  2   force =     0.00000121   -0.00634157    0.07058176
     atom    2 type  3   force =    -0.00000043   -0.00323594   -0.04590385
     atom    3 type  1   force =     0.01890200    0.01088764   -0.00730548
     atom    4 type  1   force =    -0.01890305    0.01088886   -0.00730537
     atom    5 type  1   force =     0.00000029   -0.01175551   -0.00428498
     atom    6 type  3   force =    -0.00000002   -0.00044348    0.02329712

     Total force =     0.094327     Total SCF correction =     0.001210

     Entering FIRE :       iteration =     2

     FIRE Parameters: P = 0.00000000, dt = 22.00, alpha = 0.198 nsteppos =   6 at step  2


ATOMIC_POSITIONS (angstrom)
C            -0.0000010175       -0.0294072325        4.6787285289
Cl            0.0000066616        0.1290439385        6.5475697518
H             0.9035341806        0.4621132343        4.3278077533
H            -0.9035340219        0.4621204240        4.3278121438
H            -0.0000080139       -1.0956853474        4.4682611286
Cl            0.0000022111        0.0732609631        1.6709913273



     Writing config-only to output data dir ./pwscf.save/
     NEW-OLD atomic charge density approx. for the potential

     Check: negative core charge=   -0.000002

     negative rho (up, down):  4.715E-03 0.000E+00

     total cpu time spent up to now is        2.9 secs

     Self-consistent Calculation

     iteration #  1     ecut=    40.00 Ry     beta= 0.70
     Davidson diagonalization with overlap
     ethr =  1.00E-06,  avg # of iterations =  5.0

     negative rho (up, down):  4.827E-03 0.000E+00

     total cpu time spent up to now is        3.1 secs

     total energy              =     -85.98122057 Ry
     estimated scf accuracy    <       0.00084204 Ry

     iteration #  2     ecut=    40.00 Ry     beta= 0.70
     Davidson diagonalization with overlap
     ethr =  4.01E-06,  avg # of iterations =  3.0

     negative rho (up, down):  4.833E-03 0.000E+00

     total cpu time spent up to now is        3.2 secs

     total energy              =     -85.97995273 Ry
     estimated scf accuracy    <       0.02421055 Ry

     iteration #  3     ecut=    40.00 Ry     beta= 0.70
     Davidson diagonalization with overlap
     ethr =  4.01E-06,  avg # of iterations =  3.0

     negative rho (up, down):  4.864E-03 0.000E+00

     total cpu time spent up to now is        3.3 secs

     total energy              =     -85.98170865 Ry
     estimated scf accuracy    <       0.00004110 Ry

     iteration #  4     ecut=    40.00 Ry     beta= 0.70
     Davidson diagonalization with overlap
     ethr =  1.96E-07,  avg # of iterations =  2.0

     negative rho (up, down):  4.881E-03 0.000E+00

     total cpu time spent up to now is        3.4 secs

     total energy              =     -85.98171714 Ry
     estimated scf accuracy    <       0.00001425 Ry

     iteration #  5     ecut=    40.00 Ry     beta= 0.70
     Davidson diagonalization with overlap
     ethr =  6.79E-08,  avg # of iterations =  1.0

     negative rho (up, down):  4.885E-03 0.000E+00

     total cpu time spent up to now is        3.5 secs

     total energy              =     -85.98171928 Ry
     estimated scf accuracy    <       0.00000234 Ry

     iteration #  6     ecut=    40.00 Ry     beta= 0.70
     Davidson diagonalization with overlap
     ethr =  1.11E-08,  avg # of iterations =  2.0

     negative rho (up, down):  4.887E-03 0.000E+00

     total cpu time spent up to now is        3.6 secs

     End of self-consistent calculation

          k = 0.0000 0.0000 0.0000 ( 11001 PWs)   bands (ev):

   -21.0647 -19.0837 -16.8544 -10.8694 -10.8682 -10.0769  -7.3576  -7.3541
    -7.0287  -7.0013  -6.9989  -1.0878  -0.8510   0.2998   0.4057

     the Fermi energy is    -6.4945 ev

!    total energy              =     -85.98171949 Ry
     estimated scf accuracy    <       0.00000009 Ry
     smearing contrib. (-TS)   =      -0.05905782 Ry
     internal energy E=F+TS    =     -85.92266168 Ry

     convergence has been achieved in   6 iterations

     negative rho (up, down):  4.887E-03 0.000E+00
  * IN ARTn_QE::           6
 Elements:H  C  Cl 

     Forces acting on atoms (cartesian axes, Ry/au):

     atom    1 type  2   force =     0.00000005    0.00338926    0.04869247
     atom    2 type  3   force =    -0.00000035   -0.00284285   -0.03770443
     atom    3 type  1   force =     0.00470173    0.00271327   -0.00131473
     atom    4 type  1   force =    -0.00470174    0.00271377   -0.00131434
     atom    5 type  1   force =     0.00000033   -0.00560428   -0.00203259
     atom    6 type  3   force =    -0.00000001   -0.00036917    0.01727938

     Total force =     0.064875     Total SCF correction =     0.000403

     Entering FIRE :       iteration =     3

     FIRE Parameters: P = 0.00001184, dt = 24.20, alpha = 0.196 nsteppos =   7 at step  3


ATOMIC_POSITIONS (angstrom)
C            -0.0000006968       -0.0295370914        4.7170452301
Cl            0.0000064050        0.1270267759        6.5200742599
H             0.9102377549        0.4659766819        4.3254312587
H            -0.9102378630        0.4659843841        4.3254358434
H            -0.0000078034       -1.1009980044        4.4663289826
Cl            0.0000022034        0.0729932338        1.6841537659



     Writing config-only to output data dir ./pwscf.save/
     NEW-OLD atomic charge density approx. for the potential

     Check: negative core charge=   -0.000002

     negative rho (up, down):  4.414E-03 0.000E+00

     total cpu time spent up to now is        3.8 secs

     Self-consistent Calculation

     iteration #  1     ecut=    40.00 Ry     beta= 0.70
     Davidson diagonalization with overlap
     ethr =  1.00E-06,  avg # of iterations =  8.0

     negative rho (up, down):  4.645E-03 0.000E+00

     total cpu time spent up to now is        4.0 secs

     total energy              =     -85.98375934 Ry
     estimated scf accuracy    <       0.00227223 Ry

     iteration #  2     ecut=    40.00 Ry     beta= 0.70
     Davidson diagonalization with overlap
     ethr =  1.08E-05,  avg # of iterations =  3.0

     negative rho (up, down):  4.660E-03 0.000E+00

     total cpu time spent up to now is        4.1 secs

     total energy              =     -85.98203238 Ry
     estimated scf accuracy    <       0.03399179 Ry

     iteration #  3     ecut=    40.00 Ry     beta= 0.70
     Davidson diagonalization with overlap
     ethr =  1.08E-05,  avg # of iterations =  2.0

     negative rho (up, down):  4.714E-03 0.000E+00

     total cpu time spent up to now is        4.2 secs

     total energy              =     -85.98486399 Ry
     estimated scf accuracy    <       0.00034747 Ry

     iteration #  4     ecut=    40.00 Ry     beta= 0.70
     Davidson diagonalization with overlap
     ethr =  1.65E-06,  avg # of iterations =  2.0

     negative rho (up, down):  4.750E-03 0.000E+00

     total cpu time spent up to now is        4.3 secs

     total energy              =     -85.98491912 Ry
     estimated scf accuracy    <       0.00019497 Ry

     iteration #  5     ecut=    40.00 Ry     beta= 0.70
     Davidson diagonalization with overlap
     ethr =  9.28E-07,  avg # of iterations =  2.0

     negative rho (up, down):  4.763E-03 0.000E+00

     total cpu time spent up to now is        4.4 secs

     total energy              =     -85.98494096 Ry
     estimated scf accuracy    <       0.00001792 Ry

     iteration #  6     ecut=    40.00 Ry     beta= 0.70
     Davidson diagonalization with overlap
     ethr =  8.53E-08,  avg # of iterations =  1.0

     negative rho (up, down):  4.767E-03 0.000E+00

     total cpu time spent up to now is        4.5 secs

     End of self-consistent calculation

          k = 0.0000 0.0000 0.0000 ( 11001 PWs)   bands (ev):

   -21.3738 -19.0425 -16.6555 -10.8013 -10.7629 -10.3279  -7.3369  -7.3349
    -6.9880  -6.9544  -6.9528  -0.9589  -0.6066   0.3526   0.4618

     the Fermi energy is    -6.4545 ev

!    total energy              =     -85.98494262 Ry
     estimated scf accuracy    <       0.00000010 Ry
     smearing contrib. (-TS)   =      -0.05870829 Ry
     internal energy E=F+TS    =     -85.92623434 Ry

     convergence has been achieved in   6 iterations

     negative rho (up, down):  4.767E-03 0.000E+00
  * IN ARTn_QE::           6
 Elements:H  C  Cl 

     Forces acting on atoms (cartesian axes, Ry/au):

     atom    1 type  2   force =    -0.00000084    0.00805939    0.00011701
     atom    2 type  3   force =    -0.00000019   -0.00081785   -0.01286243
     atom    3 type  1   force =    -0.01429209   -0.00796793    0.00803310
     atom    4 type  1   force =     0.01429276   -0.00796806    0.00803362
     atom    5 type  1   force =     0.00000037    0.00887528    0.00320593
     atom    6 type  3   force =    -0.00000001   -0.00018082    0.00259589

     Total force =     0.031488     Total SCF correction =     0.000195

     Entering FIRE :       iteration =     4

     FIRE Parameters: P = 0.00000031, dt = 26.62, alpha = 0.194 nsteppos =   8 at step  4


ATOMIC_POSITIONS (angstrom)
C            -0.0000009875       -0.0241202430        4.7510946134
Cl            0.0000060479        0.1246771187        6.4868697861
H             0.9063706017        0.4639325654        4.3288383408
H            -0.9063704887        0.4639406326        4.3288434509
H            -0.0000073620       -1.0996158615        4.4668166187
Cl            0.0000021887        0.0726317678        1.6976045373



     Writing config-only to output data dir ./pwscf.save/
     NEW-OLD atomic charge density approx. for the potential

     Check: negative core charge=   -0.000002

     negative rho (up, down):  4.418E-03 0.000E+00

     total cpu time spent up to now is        4.8 secs

     Self-consistent Calculation

     iteration #  1     ecut=    40.00 Ry     beta= 0.70
     Davidson diagonalization with overlap
     ethr =  1.00E-06,  avg # of iterations =  9.0

     negative rho (up, down):  4.641E-03 0.000E+00

     total cpu time spent up to now is        4.9 secs

     total energy              =     -85.98165527 Ry
     estimated scf accuracy    <       0.00309147 Ry

     iteration #  2     ecut=    40.00 Ry     beta= 0.70
     Davidson diagonalization with overlap
     ethr =  1.47E-05,  avg # of iterations =  3.0

     negative rho (up, down):  4.652E-03 0.000E+00

     total cpu time spent up to now is        5.0 secs

     total energy              =     -85.97996325 Ry
     estimated scf accuracy    <       0.03592597 Ry

     iteration #  3     ecut=    40.00 Ry     beta= 0.70
     Davidson diagonalization with overlap
     ethr =  1.47E-05,  avg # of iterations =  3.0

     negative rho (up, down):  4.677E-03 0.000E+00

     total cpu time spent up to now is        5.1 secs

     total energy              =     -85.98311801 Ry
     estimated scf accuracy    <       0.00141967 Ry

     iteration #  4     ecut=    40.00 Ry     beta= 0.70
     Davidson diagonalization with overlap
     ethr =  6.76E-06,  avg # of iterations =  2.0

     negative rho (up, down):  4.714E-03 0.000E+00

     total cpu time spent up to now is        5.2 secs

     total energy              =     -85.98332355 Ry
     estimated scf accuracy    <       0.00060405 Ry

     iteration #  5     ecut=    40.00 Ry     beta= 0.70
     Davidson diagonalization with overlap
     ethr =  2.88E-06,  avg # of iterations =  1.0

     negative rho (up, down):  4.730E-03 0.000E+00

     total cpu time spent up to now is        5.3 secs

     total energy              =     -85.98338828 Ry
     estimated scf accuracy    <       0.00006085 Ry

     iteration #  6     ecut=    40.00 Ry     beta= 0.70
     Davidson diagonalization with overlap
     ethr =  2.90E-07,  avg # of iterations =  1.0

     negative rho (up, down):  4.733E-03 0.000E+00

     total cpu time spent up to now is        5.4 secs

     total energy              =     -85.98339364 Ry
     estimated scf accuracy    <       0.00000108 Ry

     iteration #  7     ecut=    40.00 Ry     beta= 0.70
     Davidson diagonalization with overlap
     ethr =  5.15E-09,  avg # of iterations =  2.0

     negative rho (up, down):  4.733E-03 0.000E+00

     total cpu time spent up to now is        5.5 secs

     End of self-consistent calculation

          k = 0.0000 0.0000 0.0000 ( 11001 PWs)   bands (ev):

   -21.7626 -18.9947 -16.5287 -10.8131 -10.8101 -10.5909  -7.3048  -7.3011
    -6.9416  -6.9023  -6.9008  -0.9356  -0.3313   0.3775   0.6409

     the Fermi energy is    -6.4072 ev

!    total energy              =     -85.98339376 Ry
     estimated scf accuracy    <       0.00000014 Ry
     smearing contrib. (-TS)   =      -0.05845849 Ry
     internal energy E=F+TS    =     -85.92493527 Ry

     convergence has been achieved in   7 iterations

     negative rho (up, down):  4.733E-03 0.000E+00
  * IN ARTn_QE::           6
 Elements:H  C  Cl 

     Forces acting on atoms (cartesian axes, Ry/au):

     atom    1 type  2   force =     0.00000000    0.00000000   -0.27343327
     atom    2 type  3   force =     0.00000000    0.00000000    0.27343327
     atom    3 type  1   force =     0.00000000    0.00000000    0.00000000
     atom    4 type  1   force =     0.00000000    0.00000000    0.00000000
     atom    5 type  1   force =     0.00000000    0.00000000    0.00000000
     atom    6 type  3   force =     0.00000000    0.00000000    1.36716636

     Total force =     1.420801     Total SCF correction =     0.000564

     Entering FIRE :       iteration =     5

     FIRE Parameters: P = 0.00000000, dt = 20.00, alpha = 0.000 nsteppos =   1 at step  5


ATOMIC_POSITIONS (angstrom)
C            -0.0000009875       -0.0241202430        4.6899904924
Cl            0.0000060479        0.1246771187        6.5479739071
H             0.9063706017        0.4639325654        4.3288383408
H            -0.9063704887        0.4639406326        4.3288434509
H            -0.0000073620       -1.0996158615        4.4668166187
Cl            0.0000021887        0.0726317678        2.0031251425



     Writing config-only to output data dir ./pwscf.save/
     NEW-OLD atomic charge density approx. for the potential

     Check: negative core charge=   -0.000002

     negative rho (up, down):  5.289E-03 0.000E+00

     total cpu time spent up to now is        5.8 secs

     Self-consistent Calculation

     iteration #  1     ecut=    40.00 Ry     beta= 0.70
     Davidson diagonalization with overlap
     ethr =  1.00E-06,  avg # of iterations = 11.0

     negative rho (up, down):  5.047E-03 0.000E+00

     total cpu time spent up to now is        6.0 secs

     total energy              =     -85.97047499 Ry
     estimated scf accuracy    <       0.00730214 Ry

     iteration #  2     ecut=    40.00 Ry     beta= 0.70
     Davidson diagonalization with overlap
     ethr =  3.48E-05,  avg # of iterations =  3.0

     negative rho (up, down):  5.046E-03 0.000E+00

     total cpu time spent up to now is        6.1 secs

     total energy              =     -85.95257780 Ry
     estimated scf accuracy    <       0.26730629 Ry

     iteration #  3     ecut=    40.00 Ry     beta= 0.70
     Davidson diagonalization with overlap
     ethr =  3.48E-05,  avg # of iterations =  2.0

     negative rho (up, down):  5.042E-03 0.000E+00

     total cpu time spent up to now is        6.2 secs

     total energy              =     -85.97312628 Ry
     estimated scf accuracy    <       0.01038593 Ry

     iteration #  4     ecut=    40.00 Ry     beta= 0.70
     Davidson diagonalization with overlap
     ethr =  3.48E-05,  avg # of iterations =  1.0

     negative rho (up, down):  5.021E-03 0.000E+00

     total cpu time spent up to now is        6.3 secs

     total energy              =     -85.97386563 Ry
     estimated scf accuracy    <       0.00062744 Ry

     iteration #  5     ecut=    40.00 Ry     beta= 0.70
     Davidson diagonalization with overlap
     ethr =  2.99E-06,  avg # of iterations =  2.0

     negative rho (up, down):  5.017E-03 0.000E+00

     total cpu time spent up to now is        6.4 secs

     total energy              =     -85.97391768 Ry
     estimated scf accuracy    <       0.00010617 Ry

     iteration #  6     ecut=    40.00 Ry     beta= 0.70
     Davidson diagonalization with overlap
     ethr =  5.06E-07,  avg # of iterations =  1.0

     negative rho (up, down):  5.016E-03 0.000E+00

     total cpu time spent up to now is        6.5 secs

     total energy              =     -85.97392599 Ry
     estimated scf accuracy    <       0.00000183 Ry

     iteration #  7     ecut=    40.00 Ry     beta= 0.70
     Davidson diagonalization with overlap
     ethr =  8.72E-09,  avg # of iterations =  2.0

     negative rho (up, down):  5.016E-03 0.000E+00

     total cpu time spent up to now is        6.6 secs

     End of self-consistent calculation

          k = 0.0000 0.0000 0.0000 ( 11001 PWs)   bands (ev):

   -21.0910 -19.1824 -16.7764 -10.8820 -10.8274 -10.1963  -7.4048  -7.3816
    -6.9766  -6.9369  -6.8934  -0.9560  -0.7599   0.3378   0.4033

     the Fermi energy is    -6.4378 ev

!    total energy              =     -85.97392616 Ry
     estimated scf accuracy    <       0.00000032 Ry
     smearing contrib. (-TS)   =      -0.05740674 Ry
     internal energy E=F+TS    =     -85.91651943 Ry

     convergence has been achieved in   7 iterations

     negative rho (up, down):  5.016E-03 0.000E+00
  * IN ARTn_QE::           6
 Elements:H  C  Cl 

     Forces acting on atoms (cartesian axes, Ry/au):

     atom    1 type  2   force =    -0.00000029   -0.01057630    0.03744047
     atom    2 type  3   force =    -0.00000019   -0.00114899   -0.02482596
     atom    3 type  1   force =     0.00178475    0.00197515    0.00465144
     atom    4 type  1   force =    -0.00178447    0.00197522    0.00465161
     atom    5 type  1   force =     0.00000022    0.00802423    0.00306518
     atom    6 type  3   force =    -0.00000001   -0.00024931    0.01245329

     Total force =     0.049170     Total SCF correction =     0.001020

     Entering FIRE :       iteration =     6

     FIRE Parameters: P = 0.00000000, dt = 22.00, alpha = 0.198 nsteppos =   6 at step  6


ATOMIC_POSITIONS (angstrom)
C            -0.0000010687       -0.0270922527        4.7005115072
Cl            0.0000059934        0.1243542455        6.5409976494
H             0.9068721287        0.4644875961        4.3301454252
H            -0.9068719364        0.4644956826        4.3301505841
H            -0.0000073016       -1.0973610005        4.4676779539
Cl            0.0000021845        0.0725617091        2.0066245970



     Writing config-only to output data dir ./pwscf.save/
     NEW-OLD atomic charge density approx. for the potential

     Check: negative core charge=   -0.000002

     negative rho (up, down):  4.906E-03 0.000E+00

     total cpu time spent up to now is        6.8 secs

     Self-consistent Calculation

     iteration #  1     ecut=    40.00 Ry     beta= 0.70
     Davidson diagonalization with overlap
     ethr =  1.00E-06,  avg # of iterations =  4.0

     negative rho (up, down):  4.970E-03 0.000E+00

     total cpu time spent up to now is        7.0 secs

     total energy              =     -85.97487161 Ry
     estimated scf accuracy    <       0.00027077 Ry

     iteration #  2     ecut=    40.00 Ry     beta= 0.70
     Davidson diagonalization with overlap
     ethr =  1.29E-06,  avg # of iterations =  3.0

     negative rho (up, down):  4.972E-03 0.000E+00

     total cpu time spent up to now is        7.1 secs

     total energy              =     -85.97438286 Ry
     estimated scf accuracy    <       0.00780810 Ry

     iteration #  3     ecut=    40.00 Ry     beta= 0.70
     Davidson diagonalization with overlap
     ethr =  1.29E-06,  avg # of iterations =  2.0

     negative rho (up, down):  4.981E-03 0.000E+00

     total cpu time spent up to now is        7.2 secs

     total energy              =     -85.97501602 Ry
     estimated scf accuracy    <       0.00008284 Ry

     iteration #  4     ecut=    40.00 Ry     beta= 0.70
     Davidson diagonalization with overlap
     ethr =  3.94E-07,  avg # of iterations =  2.0

     negative rho (up, down):  4.992E-03 0.000E+00

     total cpu time spent up to now is        7.3 secs

     total energy              =     -85.97502899 Ry
     estimated scf accuracy    <       0.00000591 Ry

     iteration #  5     ecut=    40.00 Ry     beta= 0.70
     Davidson diagonalization with overlap
     ethr =  2.81E-08,  avg # of iterations =  2.0

     negative rho (up, down):  4.996E-03 0.000E+00

     total cpu time spent up to now is        7.4 secs

     End of self-consistent calculation

          k = 0.0000 0.0000 0.0000 ( 11001 PWs)   bands (ev):

   -21.1733 -19.1701 -16.7405 -10.8495 -10.8383 -10.2606  -7.4028  -7.3832
    -6.9674  -6.9219  -6.8799  -0.9423  -0.6764   0.3544   0.4130

     the Fermi energy is    -6.4268 ev

!    total energy              =     -85.97502996 Ry
     estimated scf accuracy    <       0.00000018 Ry
     smearing contrib. (-TS)   =      -0.05722659 Ry
     internal energy E=F+TS    =     -85.91780337 Ry

     convergence has been achieved in   5 iterations

     negative rho (up, down):  4.996E-03 0.000E+00
  * IN ARTn_QE::           6
 Elements:H  C  Cl 

     Forces acting on atoms (cartesian axes, Ry/au):

     atom    1 type  2   force =    -0.00000001   -0.00063016    0.02812135
     atom    2 type  3   force =    -0.00000018   -0.00105849   -0.01882563
     atom    3 type  1   force =    -0.00269454   -0.00099743    0.00654323
     atom    4 type  1   force =     0.00269458   -0.00099731    0.00654332
     atom    5 type  1   force =     0.00000015    0.00384590    0.00290242
     atom    6 type  3   force =    -0.00000001   -0.00016251    0.00938940

     Total force =     0.036882     Total SCF correction =     0.000919

     Entering FIRE :       iteration =     7

     FIRE Parameters: P = 0.00000348, dt = 24.20, alpha = 0.196 nsteppos =   7 at step  7


ATOMIC_POSITIONS (angstrom)
C            -0.0000011431       -0.0299847627        4.7216031140
Cl            0.0000058681        0.1236250375        6.5269372461
H             0.9061862546        0.4645603807        4.3340439733
H            -0.9061859749        0.4645685345        4.3340492117
H            -0.0000071835       -1.0937548427        4.4696562484
Cl            0.0000021788        0.0724316328        2.0136549990



     Writing config-only to output data dir ./pwscf.save/
     NEW-OLD atomic charge density approx. for the potential

     Check: negative core charge=   -0.000002

     negative rho (up, down):  4.763E-03 0.000E+00

     total cpu time spent up to now is        7.6 secs

     Self-consistent Calculation

     iteration #  1     ecut=    40.00 Ry     beta= 0.70
     Davidson diagonalization with overlap
     ethr =  1.00E-06,  avg # of iterations =  7.0

     negative rho (up, down):  4.898E-03 0.000E+00

     total cpu time spent up to now is        7.8 secs

     total energy              =     -85.97590651 Ry
     estimated scf accuracy    <       0.00076436 Ry

     iteration #  2     ecut=    40.00 Ry     beta= 0.70
     Davidson diagonalization with overlap
     ethr =  3.64E-06,  avg # of iterations =  2.0

     negative rho (up, down):  4.903E-03 0.000E+00

     total cpu time spent up to now is        7.9 secs

     total energy              =     -85.97500947 Ry
     estimated scf accuracy    <       0.01246547 Ry

     iteration #  3     ecut=    40.00 Ry     beta= 0.70
     Davidson diagonalization with overlap
     ethr =  3.64E-06,  avg # of iterations =  2.0

     negative rho (up, down):  4.919E-03 0.000E+00

     total cpu time spent up to now is        8.0 secs

     total energy              =     -85.97619569 Ry
     estimated scf accuracy    <       0.00076207 Ry

     iteration #  4     ecut=    40.00 Ry     beta= 0.70
     Davidson diagonalization with overlap
     ethr =  3.63E-06,  avg # of iterations =  1.0

     negative rho (up, down):  4.941E-03 0.000E+00

     total cpu time spent up to now is        8.1 secs

     total energy              =     -85.97629003 Ry
     estimated scf accuracy    <       0.00004213 Ry

     iteration #  5     ecut=    40.00 Ry     beta= 0.70
     Davidson diagonalization with overlap
     ethr =  2.01E-07,  avg # of iterations =  2.0

     negative rho (up, down):  4.952E-03 0.000E+00

     total cpu time spent up to now is        8.2 secs

     End of self-consistent calculation

          k = 0.0000 0.0000 0.0000 ( 11001 PWs)   bands (ev):

   -21.3511 -19.1430 -16.6750 -10.8520 -10.8191 -10.3918  -7.3974  -7.3827
    -6.9448  -6.8911  -6.8524  -0.9283  -0.5076   0.3781   0.4609

     the Fermi energy is    -6.4027 ev

!    total energy              =     -85.97629563 Ry
     estimated scf accuracy    <       0.00000066 Ry
     smearing contrib. (-TS)   =      -0.05689297 Ry
     internal energy E=F+TS    =     -85.91940266 Ry

     convergence has been achieved in   5 iterations

     negative rho (up, down):  4.952E-03 0.000E+00
  * IN ARTn_QE::           6
 Elements:H  C  Cl 

     Forces acting on atoms (cartesian axes, Ry/au):

     atom    1 type  2   force =     0.00000023    0.00885720    0.00897656
     atom    2 type  3   force =    -0.00000011   -0.00026012   -0.00405209
     atom    3 type  1   force =    -0.00781226   -0.00438914    0.00867636
     atom    4 type  1   force =     0.00781204   -0.00438897    0.00867633
     atom    5 type  1   force =     0.00000010    0.00013014    0.00304201
     atom    6 type  3   force =    -0.00000000    0.00005089    0.00260573

     Total force =     0.022421     Total SCF correction =     0.001287

     Entering FIRE :       iteration =     8

     FIRE Parameters: P = 0.00000210, dt = 26.62, alpha = 0.194 nsteppos =   8 at step  8


ATOMIC_POSITIONS (angstrom)
C            -0.0000010584       -0.0268649274        4.7460622884
Cl            0.0000056851        0.1228116374        6.5118717732
H             0.9005646505        0.4618081598        4.3430682579
H            -0.9005644355        0.4618164791        4.3430735519
H            -0.0000070131       -1.0904743421        4.4733622997
Cl            0.0000021716        0.0723489733        2.0215599285



     Writing config-only to output data dir ./pwscf.save/
     NEW-OLD atomic charge density approx. for the potential

     Check: negative core charge=   -0.000002

     negative rho (up, down):  4.716E-03 0.000E+00

     total cpu time spent up to now is        8.4 secs

     Self-consistent Calculation

     iteration #  1     ecut=    40.00 Ry     beta= 0.70
     Davidson diagonalization with overlap
     ethr =  1.00E-06,  avg # of iterations =  8.0

     negative rho (up, down):  4.875E-03 0.000E+00

     total cpu time spent up to now is        8.6 secs

     total energy              =     -85.97597892 Ry
     estimated scf accuracy    <       0.00123323 Ry

     iteration #  2     ecut=    40.00 Ry     beta= 0.70
     Davidson diagonalization with overlap
     ethr =  5.87E-06,  avg # of iterations =  2.0

     negative rho (up, down):  4.880E-03 0.000E+00

     total cpu time spent up to now is        8.7 secs

     total energy              =     -85.97492541 Ry
     estimated scf accuracy    <       0.01269532 Ry

     iteration #  3     ecut=    40.00 Ry     beta= 0.70
     Davidson diagonalization with overlap
     ethr =  5.87E-06,  avg # of iterations =  2.0

     negative rho (up, down):  4.893E-03 0.000E+00

     total cpu time spent up to now is        8.8 secs

     total energy              =     -85.97625055 Ry
     estimated scf accuracy    <       0.00294867 Ry

     iteration #  4     ecut=    40.00 Ry     beta= 0.70
     Davidson diagonalization with overlap
     ethr =  5.87E-06,  avg # of iterations =  1.0

     negative rho (up, down):  4.919E-03 0.000E+00

     total cpu time spent up to now is        8.9 secs

     total energy              =     -85.97656314 Ry
     estimated scf accuracy    <       0.00009832 Ry

     iteration #  5     ecut=    40.00 Ry     beta= 0.70
     Davidson diagonalization with overlap
     ethr =  4.68E-07,  avg # of iterations =  2.0

     negative rho (up, down):  4.930E-03 0.000E+00

     total cpu time spent up to now is        9.0 secs

     total energy              =     -85.97657476 Ry
     estimated scf accuracy    <       0.00000131 Ry

     iteration #  6     ecut=    40.00 Ry     beta= 0.70
     Davidson diagonalization with overlap
     ethr =  6.23E-09,  avg # of iterations =  2.0

     negative rho (up, down):  4.933E-03 0.000E+00

     total cpu time spent up to now is        9.1 secs

     End of self-consistent calculation

          k = 0.0000 0.0000 0.0000 ( 11001 PWs)   bands (ev):

   -21.5736 -19.1113 -16.6234 -10.8603 -10.8586 -10.5420  -7.3890  -7.3720
    -6.9154  -6.8604  -6.8259  -0.9156  -0.3417   0.3885   0.5651

     the Fermi energy is    -6.3762 ev

!    total energy              =     -85.97657466 Ry
     estimated scf accuracy    <       0.00000060 Ry
     smearing contrib. (-TS)   =      -0.05665548 Ry
     internal energy E=F+TS    =     -85.91991918 Ry

     convergence has been achieved in   6 iterations

     negative rho (up, down):  4.933E-03 0.000E+00
  * IN ARTn_QE::           6
 Elements:H  C  Cl 

     Forces acting on atoms (cartesian axes, Ry/au):

     atom    1 type  2   force =     0.00000000    0.00000000   -0.27343327
     atom    2 type  3   force =     0.00000000    0.00000000    0.27343327
     atom    3 type  1   force =     0.00000000    0.00000000    0.00000000
     atom    4 type  1   force =     0.00000000    0.00000000    0.00000000
     atom    5 type  1   force =     0.00000000    0.00000000    0.00000000
     atom    6 type  3   force =     0.00000000    0.00000000    1.36716636

     Total force =     1.420801     Total SCF correction =     0.001267

     Entering FIRE :       iteration =     9

     FIRE Parameters: P = 0.00000000, dt = 20.00, alpha = 0.000 nsteppos =   1 at step  9


ATOMIC_POSITIONS (angstrom)
C            -0.0000010584       -0.0268649274        4.6849581674
Cl            0.0000056851        0.1228116374        6.5729758942
H             0.9005646505        0.4618081598        4.3430682579
H            -0.9005644355        0.4618164791        4.3430735519
H            -0.0000070131       -1.0904743421        4.4733622997
Cl            0.0000021716        0.0723489733        2.3270805337



     Writing config-only to output data dir ./pwscf.save/
     NEW-OLD atomic charge density approx. for the potential

     Check: negative core charge=   -0.000002

     negative rho (up, down):  5.447E-03 0.000E+00

     total cpu time spent up to now is        9.4 secs

     Self-consistent Calculation

     iteration #  1     ecut=    40.00 Ry     beta= 0.70
     Davidson diagonalization with overlap
     ethr =  1.00E-06,  avg # of iterations = 11.0

     negative rho (up, down):  5.149E-03 0.000E+00

     total cpu time spent up to now is        9.5 secs

     total energy              =     -85.93920708 Ry
     estimated scf accuracy    <       0.01147149 Ry

     iteration #  2     ecut=    40.00 Ry     beta= 0.70
     Davidson diagonalization with overlap
     ethr =  5.46E-05,  avg # of iterations =  2.0

     negative rho (up, down):  5.145E-03 0.000E+00

     total cpu time spent up to now is        9.6 secs

     total energy              =     -85.91641126 Ry
     estimated scf accuracy    <       0.28093046 Ry

     iteration #  3     ecut=    40.00 Ry     beta= 0.70
     Davidson diagonalization with overlap
     ethr =  5.46E-05,  avg # of iterations =  2.0

     negative rho (up, down):  5.128E-03 0.000E+00

     total cpu time spent up to now is        9.7 secs

     total energy              =     -85.94364691 Ry
     estimated scf accuracy    <       0.01291962 Ry

     iteration #  4     ecut=    40.00 Ry     beta= 0.70
     Davidson diagonalization with overlap
     ethr =  5.46E-05,  avg # of iterations =  1.0

     negative rho (up, down):  5.099E-03 0.000E+00

     total cpu time spent up to now is        9.8 secs

     total energy              =     -85.94462576 Ry
     estimated scf accuracy    <       0.00085465 Ry

     iteration #  5     ecut=    40.00 Ry     beta= 0.70
     Davidson diagonalization with overlap
     ethr =  4.07E-06,  avg # of iterations =  2.0

     negative rho (up, down):  5.090E-03 0.000E+00

     total cpu time spent up to now is       10.0 secs

     total energy              =     -85.94468392 Ry
     estimated scf accuracy    <       0.00016647 Ry

     iteration #  6     ecut=    40.00 Ry     beta= 0.70
     Davidson diagonalization with overlap
     ethr =  7.93E-07,  avg # of iterations =  1.0

     negative rho (up, down):  5.089E-03 0.000E+00

     total cpu time spent up to now is       10.1 secs

     total energy              =     -85.94469827 Ry
     estimated scf accuracy    <       0.00000204 Ry

     iteration #  7     ecut=    40.00 Ry     beta= 0.70
     Davidson diagonalization with overlap
     ethr =  9.72E-09,  avg # of iterations =  2.0

     negative rho (up, down):  5.089E-03 0.000E+00

     total cpu time spent up to now is       10.2 secs

     End of self-consistent calculation

          k = 0.0000 0.0000 0.0000 ( 11001 PWs)   bands (ev):

   -20.9520 -19.5310 -16.8157 -11.1158 -11.0338 -10.2682  -7.4703  -7.4280
    -6.8868  -6.8194  -6.6499  -0.9535  -0.6814   0.3519   0.3929

     the Fermi energy is    -6.2988 ev

!    total energy              =     -85.94469880 Ry
     estimated scf accuracy    <       0.00000010 Ry
     smearing contrib. (-TS)   =      -0.05393256 Ry
     internal energy E=F+TS    =     -85.89076624 Ry

     convergence has been achieved in   7 iterations

     negative rho (up, down):  5.089E-03 0.000E+00
  * IN ARTn_QE::           6
 Elements:H  C  Cl 

     Forces acting on atoms (cartesian axes, Ry/au):

     atom    1 type  2   force =    -0.00000054   -0.01101706    0.04979879
     atom    2 type  3   force =    -0.00000009   -0.00032466   -0.00907554
     atom    3 type  1   force =     0.01759829    0.01006292    0.01158584
     atom    4 type  1   force =    -0.01759770    0.01006287    0.01158587
     atom    5 type  1   force =     0.00000006   -0.00922876    0.00744198
     atom    6 type  3   force =    -0.00000001    0.00044469    0.01177486

     Total force =     0.063667     Total SCF correction =     0.000460

     Entering FIRE :       iteration =    10

     FIRE Parameters: P = 0.00000000, dt = 22.00, alpha = 0.198 nsteppos =   6 at step 10


ATOMIC_POSITIONS (angstrom)
C            -0.0000012100       -0.0299607932        4.6989519509
Cl            0.0000056607        0.1227204058        6.5704256095
H             0.9055098834        0.4646359070        4.3463239558
H            -0.9055095050        0.4646442112        4.3463292575
H            -0.0000069964       -1.0930676838        4.4754535443
Cl            0.0000021675        0.0724739329        2.3303893473



     Writing config-only to output data dir ./pwscf.save/
     NEW-OLD atomic charge density approx. for the potential

     Check: negative core charge=   -0.000002

     negative rho (up, down):  4.963E-03 0.000E+00

     total cpu time spent up to now is       10.4 secs

     Self-consistent Calculation

     iteration #  1     ecut=    40.00 Ry     beta= 0.70
     Davidson diagonalization with overlap
     ethr =  1.00E-06,  avg # of iterations =  5.0

     negative rho (up, down):  5.026E-03 0.000E+00

     total cpu time spent up to now is       10.5 secs

     total energy              =     -85.94644147 Ry
     estimated scf accuracy    <       0.00026642 Ry

     iteration #  2     ecut=    40.00 Ry     beta= 0.70
     Davidson diagonalization with overlap
     ethr =  1.27E-06,  avg # of iterations =  3.0

     negative rho (up, down):  5.031E-03 0.000E+00

     total cpu time spent up to now is       10.6 secs

     total energy              =     -85.94614863 Ry
     estimated scf accuracy    <       0.00341240 Ry

     iteration #  3     ecut=    40.00 Ry     beta= 0.70
     Davidson diagonalization with overlap
     ethr =  1.27E-06,  avg # of iterations =  2.0

     negative rho (up, down):  5.051E-03 0.000E+00

     total cpu time spent up to now is       10.7 secs

     total energy              =     -85.94653100 Ry
     estimated scf accuracy    <       0.00014608 Ry

     iteration #  4     ecut=    40.00 Ry     beta= 0.70
     Davidson diagonalization with overlap
     ethr =  6.96E-07,  avg # of iterations =  1.0

     negative rho (up, down):  5.057E-03 0.000E+00

     total cpu time spent up to now is       10.8 secs

     total energy              =     -85.94654716 Ry
     estimated scf accuracy    <       0.00000645 Ry

     iteration #  5     ecut=    40.00 Ry     beta= 0.70
     Davidson diagonalization with overlap
     ethr =  3.07E-08,  avg # of iterations =  2.0

     negative rho (up, down):  5.063E-03 0.000E+00

     total cpu time spent up to now is       11.0 secs

     End of self-consistent calculation

          k = 0.0000 0.0000 0.0000 ( 11001 PWs)   bands (ev):

   -21.0148 -19.5053 -16.7616 -11.0529 -11.0138 -10.3214  -7.4755  -7.4327
    -6.8747  -6.7983  -6.6329  -0.9609  -0.6094   0.3671   0.3980

     the Fermi energy is    -6.2831 ev

!    total energy              =     -85.94654829 Ry
     estimated scf accuracy    <       0.00000038 Ry
     smearing contrib. (-TS)   =      -0.05372128 Ry
     internal energy E=F+TS    =     -85.89282700 Ry

     convergence has been achieved in   5 iterations

     negative rho (up, down):  5.063E-03 0.000E+00
  * IN ARTn_QE::           6
 Elements:H  C  Cl 

     Forces acting on atoms (cartesian axes, Ry/au):

     atom    1 type  2   force =    -0.00000005   -0.00076534    0.03940772
     atom    2 type  3   force =    -0.00000007   -0.00048966   -0.00599340
     atom    3 type  1   force =     0.00692770    0.00374224    0.01482677
     atom    4 type  1   force =    -0.00692763    0.00374234    0.01482663
     atom    5 type  1   force =     0.00000003   -0.00702360    0.00831592
     atom    6 type  3   force =     0.00000001    0.00079402    0.00908022

     Total force =     0.048528     Total SCF correction =     0.001321

     Entering FIRE :       iteration =    11

     FIRE Parameters: P = 0.00000588, dt = 24.20, alpha = 0.196 nsteppos =   7 at step 11


ATOMIC_POSITIONS (angstrom)
C            -0.0000013640       -0.0330182651        4.7277817790
Cl            0.0000056084        0.1224352752        6.5656677514
H             0.9127758859        0.4686992150        4.3553938952
H            -0.9127753315        0.4687075468        4.3553991452
H            -0.0000069688       -1.0982937670        4.4807751670
Cl            0.0000021700        0.0729159750        2.3371068845



     Writing config-only to output data dir ./pwscf.save/
     NEW-OLD atomic charge density approx. for the potential

     Check: negative core charge=   -0.000002

     negative rho (up, down):  4.780E-03 0.000E+00

     total cpu time spent up to now is       11.2 secs

     Self-consistent Calculation

     iteration #  1     ecut=    40.00 Ry     beta= 0.70
     Davidson diagonalization with overlap
     ethr =  1.00E-06,  avg # of iterations =  6.0

     negative rho (up, down):  4.927E-03 0.000E+00

     total cpu time spent up to now is       11.3 secs

     total energy              =     -85.94840434 Ry
     estimated scf accuracy    <       0.00109810 Ry

     iteration #  2     ecut=    40.00 Ry     beta= 0.70
     Davidson diagonalization with overlap
     ethr =  5.23E-06,  avg # of iterations =  2.0

     negative rho (up, down):  4.937E-03 0.000E+00

     total cpu time spent up to now is       11.4 secs

     total energy              =     -85.94746039 Ry
     estimated scf accuracy    <       0.01244498 Ry

     iteration #  3     ecut=    40.00 Ry     beta= 0.70
     Davidson diagonalization with overlap
     ethr =  5.23E-06,  avg # of iterations =  2.0

     negative rho (up, down):  4.985E-03 0.000E+00

     total cpu time spent up to now is       11.5 secs

     total energy              =     -85.94886564 Ry
     estimated scf accuracy    <       0.00022053 Ry

     iteration #  4     ecut=    40.00 Ry     beta= 0.70
     Davidson diagonalization with overlap
     ethr =  1.05E-06,  avg # of iterations =  1.0

     negative rho (up, down):  5.001E-03 0.000E+00

     total cpu time spent up to now is       11.6 secs

     total energy              =     -85.94889562 Ry
     estimated scf accuracy    <       0.00001520 Ry

     iteration #  5     ecut=    40.00 Ry     beta= 0.70
     Davidson diagonalization with overlap
     ethr =  7.24E-08,  avg # of iterations =  1.0

     negative rho (up, down):  5.009E-03 0.000E+00

     total cpu time spent up to now is       11.7 secs

     End of self-consistent calculation

          k = 0.0000 0.0000 0.0000 ( 11001 PWs)   bands (ev):

   -21.1562 -19.4516 -16.6597 -10.9635 -10.9632 -10.4291  -7.4832  -7.4402
    -6.8460  -6.7587  -6.6028  -0.9710  -0.4661   0.3877   0.4334

     the Fermi energy is    -6.2523 ev

!    total energy              =     -85.94889749 Ry
     estimated scf accuracy    <       0.00000033 Ry
     smearing contrib. (-TS)   =      -0.05342241 Ry
     internal energy E=F+TS    =     -85.89547508 Ry

     convergence has been achieved in   5 iterations

     negative rho (up, down):  5.009E-03 0.000E+00
  * IN ARTn_QE::           6
 Elements:H  C  Cl 

     Forces acting on atoms (cartesian axes, Ry/au):

     atom    1 type  2   force =     0.00000028    0.00772102    0.01978865
     atom    2 type  3   force =    -0.00000001   -0.00035101    0.00237129
     atom    3 type  1   force =    -0.00806801   -0.00499712    0.01903247
     atom    4 type  1   force =     0.00806765   -0.00499698    0.01903223
     atom    5 type  1   force =     0.00000003    0.00119513    0.01064313
     atom    6 type  3   force =     0.00000005    0.00142894    0.00348347

     Total force =     0.038606     Total SCF correction =     0.001251

     Entering FIRE :       iteration =    12

     FIRE Parameters: P = 0.00000519, dt = 26.62, alpha = 0.194 nsteppos =   8 at step 12


ATOMIC_POSITIONS (angstrom)
C            -0.0000013351       -0.0312251658        4.7648830734
Cl            0.0000055561        0.1219777542        6.5628329157
H             0.9145113990        0.4693866722        4.3745362993
H            -0.9145108955        0.4693951102        4.3745413581
H            -0.0000069281       -1.1022297498        4.4917010784
Cl            0.0000022036        0.0741413591        2.3450941106



     Writing config-only to output data dir ./pwscf.save/
     NEW-OLD atomic charge density approx. for the potential

     Check: negative core charge=   -0.000002

     negative rho (up, down):  4.667E-03 0.000E+00

     total cpu time spent up to now is       12.0 secs

     Self-consistent Calculation

     iteration #  1     ecut=    40.00 Ry     beta= 0.70
     Davidson diagonalization with overlap
     ethr =  1.00E-06,  avg # of iterations =  8.0

     negative rho (up, down):  4.871E-03 0.000E+00

     total cpu time spent up to now is       12.1 secs

     total energy              =     -85.95053322 Ry
     estimated scf accuracy    <       0.00145177 Ry

     iteration #  2     ecut=    40.00 Ry     beta= 0.70
     Davidson diagonalization with overlap
     ethr =  6.91E-06,  avg # of iterations =  2.0

     negative rho (up, down):  4.884E-03 0.000E+00

     total cpu time spent up to now is       12.2 secs

     total energy              =     -85.94961173 Ry
     estimated scf accuracy    <       0.00978454 Ry

     iteration #  3     ecut=    40.00 Ry     beta= 0.70
     Davidson diagonalization with overlap
     ethr =  6.91E-06,  avg # of iterations =  2.0

     negative rho (up, down):  4.924E-03 0.000E+00

     total cpu time spent up to now is       12.3 secs

     total energy              =     -85.95089213 Ry
     estimated scf accuracy    <       0.00128241 Ry

     iteration #  4     ecut=    40.00 Ry     beta= 0.70
     Davidson diagonalization with overlap
     ethr =  6.11E-06,  avg # of iterations =  1.0

     negative rho (up, down):  4.956E-03 0.000E+00

     total cpu time spent up to now is       12.4 secs

     total energy              =     -85.95106869 Ry
     estimated scf accuracy    <       0.00009403 Ry

     iteration #  5     ecut=    40.00 Ry     beta= 0.70
     Davidson diagonalization with overlap
     ethr =  4.48E-07,  avg # of iterations =  2.0

     negative rho (up, down):  4.966E-03 0.000E+00

     total cpu time spent up to now is       12.6 secs

     total energy              =     -85.95108133 Ry
     estimated scf accuracy    <       0.00000317 Ry

     iteration #  6     ecut=    40.00 Ry     beta= 0.70
     Davidson diagonalization with overlap
     ethr =  1.51E-08,  avg # of iterations =  2.0

     negative rho (up, down):  4.971E-03 0.000E+00

     total cpu time spent up to now is       12.7 secs

     End of self-consistent calculation

          k = 0.0000 0.0000 0.0000 ( 11001 PWs)   bands (ev):

   -21.3561 -19.3833 -16.5699 -10.9338 -10.9062 -10.5573  -7.4869  -7.4444
    -6.8092  -6.7231  -6.5802  -0.9700  -0.3162   0.3954   0.5232

     the Fermi energy is    -6.2233 ev

!    total energy              =     -85.95108183 Ry
     estimated scf accuracy    <       0.00000009 Ry
     smearing contrib. (-TS)   =      -0.05332457 Ry
     internal energy E=F+TS    =     -85.89775726 Ry

     convergence has been achieved in   6 iterations

     negative rho (up, down):  4.971E-03 0.000E+00
  * IN ARTn_QE::           6
 Elements:H  C  Cl 

     Forces acting on atoms (cartesian axes, Ry/au):

     atom    1 type  2   force =     0.00000000    0.00000000   -0.27343327
     atom    2 type  3   force =     0.00000000    0.00000000    0.27343327
     atom    3 type  1   force =     0.00000000    0.00000000    0.00000000
     atom    4 type  1   force =     0.00000000    0.00000000    0.00000000
     atom    5 type  1   force =     0.00000000    0.00000000    0.00000000
     atom    6 type  3   force =     0.00000000    0.00000000    1.36716636

     Total force =     1.420801     Total SCF correction =     0.000324

     Entering FIRE :       iteration =    13

     FIRE Parameters: P = 0.00000000, dt = 20.00, alpha = 0.000 nsteppos =   1 at step 13


ATOMIC_POSITIONS (angstrom)
C            -0.0000013351       -0.0312251658        4.7037789524
Cl            0.0000055561        0.1219777542        6.6239370368
H             0.9145113990        0.4693866722        4.3745362993
H            -0.9145108955        0.4693951102        4.3745413581
H            -0.0000069281       -1.1022297498        4.4917010784
Cl            0.0000022036        0.0741413591        2.6506147157



     Writing config-only to output data dir ./pwscf.save/
     NEW-OLD atomic charge density approx. for the potential

     Check: negative core charge=   -0.000002

     negative rho (up, down):  5.359E-03 0.000E+00

     total cpu time spent up to now is       12.9 secs

     Self-consistent Calculation

     iteration #  1     ecut=    40.00 Ry     beta= 0.70
     Davidson diagonalization with overlap
     ethr =  1.00E-06,  avg # of iterations = 11.0

     negative rho (up, down):  5.033E-03 0.000E+00

     total cpu time spent up to now is       13.1 secs

     total energy              =     -85.87076846 Ry
     estimated scf accuracy    <       0.02019079 Ry

     iteration #  2     ecut=    40.00 Ry     beta= 0.70
     Davidson diagonalization with overlap
     ethr =  9.61E-05,  avg # of iterations =  2.0

     negative rho (up, down):  5.014E-03 0.000E+00

     total cpu time spent up to now is       13.2 secs

     total energy              =     -85.84727091 Ry
     estimated scf accuracy    <       0.21878961 Ry

     iteration #  3     ecut=    40.00 Ry     beta= 0.70
     Davidson diagonalization with overlap
     ethr =  9.61E-05,  avg # of iterations =  2.0

     negative rho (up, down):  4.964E-03 0.000E+00

     total cpu time spent up to now is       13.3 secs

     total energy              =     -85.87927769 Ry
     estimated scf accuracy    <       0.00987021 Ry

     iteration #  4     ecut=    40.00 Ry     beta= 0.70
     Davidson diagonalization with overlap
     ethr =  4.70E-05,  avg # of iterations =  1.0

     negative rho (up, down):  4.929E-03 0.000E+00

     total cpu time spent up to now is       13.4 secs

     total energy              =     -85.87999247 Ry
     estimated scf accuracy    <       0.00088042 Ry

     iteration #  5     ecut=    40.00 Ry     beta= 0.70
     Davidson diagonalization with overlap
     ethr =  4.19E-06,  avg # of iterations =  2.0

     negative rho (up, down):  4.924E-03 0.000E+00

     total cpu time spent up to now is       13.5 secs

     total energy              =     -85.88004140 Ry
     estimated scf accuracy    <       0.00017615 Ry

     iteration #  6     ecut=    40.00 Ry     beta= 0.70
     Davidson diagonalization with overlap
     ethr =  8.39E-07,  avg # of iterations =  2.0

     negative rho (up, down):  4.923E-03 0.000E+00

     total cpu time spent up to now is       13.6 secs

     total energy              =     -85.88005668 Ry
     estimated scf accuracy    <       0.00000612 Ry

     iteration #  7     ecut=    40.00 Ry     beta= 0.70
     Davidson diagonalization with overlap
     ethr =  2.92E-08,  avg # of iterations =  3.0

     negative rho (up, down):  4.923E-03 0.000E+00

     total cpu time spent up to now is       13.7 secs

     End of self-consistent calculation

          k = 0.0000 0.0000 0.0000 ( 11001 PWs)   bands (ev):

   -21.1712 -20.0215 -16.5664 -11.5488 -11.3604 -10.4310  -7.4806  -7.4371
    -6.6820  -6.5630  -6.1362  -1.0752  -0.3574   0.3668   0.4446

     the Fermi energy is    -5.9382 ev

!    total energy              =     -85.88005805 Ry
     estimated scf accuracy    <       0.00000022 Ry
     smearing contrib. (-TS)   =      -0.04697810 Ry
     internal energy E=F+TS    =     -85.83307995 Ry

     convergence has been achieved in   7 iterations

     negative rho (up, down):  4.923E-03 0.000E+00
  * IN ARTn_QE::           6
 Elements:H  C  Cl 

     Forces acting on atoms (cartesian axes, Ry/au):

     atom    1 type  2   force =    -0.00000095   -0.01992637    0.02040105
     atom    2 type  3   force =     0.00000015    0.00326745    0.03263895
     atom    3 type  1   force =     0.01318553    0.00588051    0.04326514
     atom    4 type  1   force =    -0.01318499    0.00588034    0.04326499
     atom    5 type  1   force =    -0.00000001   -0.00091633    0.03239178
     atom    6 type  3   force =     0.00000027    0.00581440   -0.00244758

     Total force =     0.084497     Total SCF correction =     0.001019

     Entering FIRE :       iteration =    14

     FIRE Parameters: P = 0.00000000, dt = 22.00, alpha = 0.198 nsteppos =   6 at step 14


ATOMIC_POSITIONS (angstrom)
C            -0.0000016025       -0.0368246066        4.7095117811
Cl            0.0000055975        0.1228959300        6.6331087951
H             0.9182166203        0.4710391346        4.3866940846
H            -0.9182159645        0.4710475231        4.3866991024
H            -0.0000069304       -1.1024872446        4.5008033791
Cl            0.0000022798        0.0757752435        2.6499269298



     Writing config-only to output data dir ./pwscf.save/
     NEW-OLD atomic charge density approx. for the potential

     Check: negative core charge=   -0.000002

     negative rho (up, down):  4.915E-03 0.000E+00

     total cpu time spent up to now is       14.0 secs

     Self-consistent Calculation

     iteration #  1     ecut=    40.00 Ry     beta= 0.70
     Davidson diagonalization with overlap
     ethr =  1.00E-06,  avg # of iterations =  4.0

     negative rho (up, down):  4.919E-03 0.000E+00

     total cpu time spent up to now is       14.1 secs

     total energy              =     -85.88363858 Ry
     estimated scf accuracy    <       0.00011734 Ry

     iteration #  2     ecut=    40.00 Ry     beta= 0.70
     Davidson diagonalization with overlap
     ethr =  5.59E-07,  avg # of iterations =  2.0

     negative rho (up, down):  4.923E-03 0.000E+00

     total cpu time spent up to now is       14.2 secs

     total energy              =     -85.88363586 Ry
     estimated scf accuracy    <       0.00004472 Ry

     iteration #  3     ecut=    40.00 Ry     beta= 0.70
     Davidson diagonalization with overlap
     ethr =  2.13E-07,  avg # of iterations =  2.0

     negative rho (up, down):  4.925E-03 0.000E+00

     total cpu time spent up to now is       14.3 secs

     total energy              =     -85.88362959 Ry
     estimated scf accuracy    <       0.00020646 Ry

     iteration #  4     ecut=    40.00 Ry     beta= 0.70
     Davidson diagonalization with overlap
     ethr =  2.13E-07,  avg # of iterations =  2.0

     negative rho (up, down):  4.925E-03 0.000E+00

     total cpu time spent up to now is       14.4 secs

     total energy              =     -85.88365632 Ry
     estimated scf accuracy    <       0.00000504 Ry

     iteration #  5     ecut=    40.00 Ry     beta= 0.70
     Davidson diagonalization with overlap
     ethr =  2.40E-08,  avg # of iterations =  2.0

     negative rho (up, down):  4.926E-03 0.000E+00

     total cpu time spent up to now is       14.5 secs

     End of self-consistent calculation

          k = 0.0000 0.0000 0.0000 ( 11001 PWs)   bands (ev):

   -21.1305 -20.0053 -16.5749 -11.5096 -11.3768 -10.4099  -7.4762  -7.4318
    -6.7012  -6.5701  -6.1527  -1.0797  -0.3847   0.3669   0.4342

     the Fermi energy is    -5.9526 ev

!    total energy              =     -85.88365725 Ry
     estimated scf accuracy    <       0.00000024 Ry
     smearing contrib. (-TS)   =      -0.04708985 Ry
     internal energy E=F+TS    =     -85.83656740 Ry

     convergence has been achieved in   5 iterations

     negative rho (up, down):  4.926E-03 0.000E+00
  * IN ARTn_QE::           6
 Elements:H  C  Cl 

     Forces acting on atoms (cartesian axes, Ry/au):

     atom    1 type  2   force =    -0.00000032   -0.00534282    0.01885499
     atom    2 type  3   force =     0.00000012    0.00259907    0.03069285
     atom    3 type  1   force =     0.00765611    0.00219847    0.04277286
     atom    4 type  1   force =    -0.00765613    0.00219848    0.04277260
     atom    5 type  1   force =    -0.00000007   -0.00764336    0.03016496
     atom    6 type  3   force =     0.00000028    0.00599015   -0.00236757

     Total force =     0.078285     Total SCF correction =     0.001117

     Entering FIRE :       iteration =    15

     FIRE Parameters: P = 0.00001298, dt = 24.20, alpha = 0.196 nsteppos =   7 at step 15


ATOMIC_POSITIONS (angstrom)
C            -0.0000019672       -0.0439384199        4.7222108050
Cl            0.0000056828        0.1247595713        6.6536389238
H             0.9245912248        0.4733900738        4.4147527622
H            -0.9245904398        0.4733984218        4.4147576371
H            -0.0000069613       -1.1058075939        4.5210584893
Cl            0.0000024608        0.0796439269        2.6483607088



     Writing config-only to output data dir ./pwscf.save/
     NEW-OLD atomic charge density approx. for the potential

     Check: negative core charge=   -0.000002

     negative rho (up, down):  4.897E-03 0.000E+00

     total cpu time spent up to now is       14.8 secs

     Self-consistent Calculation

     iteration #  1     ecut=    40.00 Ry     beta= 0.70
     Davidson diagonalization with overlap
     ethr =  1.00E-06,  avg # of iterations =  6.0

     negative rho (up, down):  4.910E-03 0.000E+00

     total cpu time spent up to now is       14.9 secs

     total energy              =     -85.89075845 Ry
     estimated scf accuracy    <       0.00049712 Ry

     iteration #  2     ecut=    40.00 Ry     beta= 0.70
     Davidson diagonalization with overlap
     ethr =  2.37E-06,  avg # of iterations =  2.0

     negative rho (up, down):  4.923E-03 0.000E+00

     total cpu time spent up to now is       15.0 secs

     total energy              =     -85.89075064 Ry
     estimated scf accuracy    <       0.00016319 Ry

     iteration #  3     ecut=    40.00 Ry     beta= 0.70
     Davidson diagonalization with overlap
     ethr =  7.77E-07,  avg # of iterations =  2.0

     negative rho (up, down):  4.927E-03 0.000E+00

     total cpu time spent up to now is       15.1 secs

     total energy              =     -85.89070031 Ry
     estimated scf accuracy    <       0.00093494 Ry

     iteration #  4     ecut=    40.00 Ry     beta= 0.70
     Davidson diagonalization with overlap
     ethr =  7.77E-07,  avg # of iterations =  2.0

     negative rho (up, down):  4.929E-03 0.000E+00

     total cpu time spent up to now is       15.2 secs

     total energy              =     -85.89082295 Ry
     estimated scf accuracy    <       0.00003805 Ry

     iteration #  5     ecut=    40.00 Ry     beta= 0.70
     Davidson diagonalization with overlap
     ethr =  1.81E-07,  avg # of iterations =  1.0

     negative rho (up, down):  4.932E-03 0.000E+00

     total cpu time spent up to now is       15.3 secs

     End of self-consistent calculation

          k = 0.0000 0.0000 0.0000 ( 11001 PWs)   bands (ev):

   -21.0460 -19.9681 -16.5937 -11.4534 -11.3798 -10.3598  -7.4650  -7.4204
    -6.7322  -6.5920  -6.1941  -1.0873  -0.4438   0.3669   0.4151

     the Fermi energy is    -5.9864 ev

!    total energy              =     -85.89082864 Ry
     estimated scf accuracy    <       0.00000090 Ry
     smearing contrib. (-TS)   =      -0.04753290 Ry
     internal energy E=F+TS    =     -85.84329574 Ry

     convergence has been achieved in   5 iterations

     negative rho (up, down):  4.932E-03 0.000E+00
  * IN ARTn_QE::           6
 Elements:H  C  Cl 

     Forces acting on atoms (cartesian axes, Ry/au):

     atom    1 type  2   force =     0.00000041    0.01093668    0.01720966
     atom    2 type  3   force =     0.00000008    0.00141472    0.02686260
     atom    3 type  1   force =     0.00002161   -0.00255330    0.04028520
     atom    4 type  1   force =    -0.00002225   -0.00255309    0.04028480
     atom    5 type  1   force =    -0.00000015   -0.01316858    0.02665698
     atom    6 type  3   force =     0.00000030    0.00592357   -0.00193059

     Total force =     0.072945     Total SCF correction =     0.001622

     Entering FIRE :       iteration =    16

     FIRE Parameters: P = 0.00002312, dt = 26.62, alpha = 0.194 nsteppos =   8 at step 16


ATOMIC_POSITIONS (angstrom)
C            -0.0000020602       -0.0441098096        4.7431231798
Cl            0.0000058058        0.1272053789        6.6869089361
H             0.9302546503        0.4740419163        4.4622268854
H            -0.9302541145        0.4740503418        4.4622314113
H            -0.0000070719       -1.1161384906        4.5539693423
Cl            0.0000027905        0.0863966433        2.6458891814



     Writing config-only to output data dir ./pwscf.save/
     NEW-OLD atomic charge density approx. for the potential

     Check: negative core charge=   -0.000002

     negative rho (up, down):  4.837E-03 0.000E+00

     total cpu time spent up to now is       15.6 secs

     Self-consistent Calculation

     iteration #  1     ecut=    40.00 Ry     beta= 0.70
     Davidson diagonalization with overlap
     ethr =  1.00E-06,  avg # of iterations =  7.0

     negative rho (up, down):  4.871E-03 0.000E+00

     total cpu time spent up to now is       15.7 secs

     total energy              =     -85.90116380 Ry
     estimated scf accuracy    <       0.00131305 Ry

     iteration #  2     ecut=    40.00 Ry     beta= 0.70
     Davidson diagonalization with overlap
     ethr =  6.25E-06,  avg # of iterations =  2.0

     negative rho (up, down):  4.892E-03 0.000E+00

     total cpu time spent up to now is       15.8 secs

     total energy              =     -85.90102727 Ry
     estimated scf accuracy    <       0.00061715 Ry

     iteration #  3     ecut=    40.00 Ry     beta= 0.70
     Davidson diagonalization with overlap
     ethr =  2.94E-06,  avg # of iterations =  2.0

     negative rho (up, down):  4.904E-03 0.000E+00

     total cpu time spent up to now is       15.9 secs

     total energy              =     -85.90081507 Ry
     estimated scf accuracy    <       0.00469388 Ry

     iteration #  4     ecut=    40.00 Ry     beta= 0.70
     Davidson diagonalization with overlap
     ethr =  2.94E-06,  avg # of iterations =  2.0

     negative rho (up, down):  4.910E-03 0.000E+00

     total cpu time spent up to now is       16.0 secs

     total energy              =     -85.90133302 Ry
     estimated scf accuracy    <       0.00003730 Ry

     iteration #  5     ecut=    40.00 Ry     beta= 0.70
     Davidson diagonalization with overlap
     ethr =  1.78E-07,  avg # of iterations =  2.0

     negative rho (up, down):  4.914E-03 0.000E+00

     total cpu time spent up to now is       16.1 secs

     total energy              =     -85.90133965 Ry
     estimated scf accuracy    <       0.00000427 Ry

     iteration #  6     ecut=    40.00 Ry     beta= 0.70
     Davidson diagonalization with overlap
     ethr =  2.03E-08,  avg # of iterations =  2.0

     negative rho (up, down):  4.914E-03 0.000E+00

     total cpu time spent up to now is       16.2 secs

     End of self-consistent calculation

          k = 0.0000 0.0000 0.0000 ( 11001 PWs)   bands (ev):

   -20.9307 -19.9110 -16.6232 -11.4343 -11.3161 -10.2783  -7.4482  -7.4068
    -6.7621  -6.6407  -6.2711  -1.0917  -0.5325   0.3658   0.3935

     the Fermi energy is    -6.0457 ev

!    total energy              =     -85.90134035 Ry
     estimated scf accuracy    <       0.00000012 Ry
     smearing contrib. (-TS)   =      -0.04862360 Ry
     internal energy E=F+TS    =     -85.85271675 Ry

     convergence has been achieved in   6 iterations

     negative rho (up, down):  4.914E-03 0.000E+00
  * IN ARTn_QE::           6
 Elements:H  C  Cl 

     Forces acting on atoms (cartesian axes, Ry/au):

     atom    1 type  2   force =    -0.00798963   -0.00222018   -0.00277383
     atom    2 type  3   force =     0.00099541    0.00104396    0.00301968
     atom    3 type  1   force =     0.00423181   -0.00291691   -0.01034647
     atom    4 type  1   force =     0.00322165   -0.00913194    0.00317500
     atom    5 type  1   force =    -0.00094080    0.00429176    0.01269891
     atom    6 type  3   force =     0.00133359   -0.00079339    0.00335523

     Total force =     0.022786     Total SCF correction =     0.000681

[...]

     negative rho (up, down):  4.804E-03 0.000E+00

     total cpu time spent up to now is      131.1 secs

     Self-consistent Calculation

     iteration #  1     ecut=    40.00 Ry     beta= 0.70
     Davidson diagonalization with overlap
     ethr =  1.00E-06,  avg # of iterations =  2.0

     Threshold (ethr) on eigenvalues was too large:
     Diagonalizing with lowered threshold

     Davidson diagonalization with overlap
     ethr =  1.71E-08,  avg # of iterations =  2.0

     negative rho (up, down):  4.804E-03 0.000E+00

     total cpu time spent up to now is      131.3 secs

     total energy              =     -85.98745865 Ry
     estimated scf accuracy    <       0.00000300 Ry

     iteration #  2     ecut=    40.00 Ry     beta= 0.70
     Davidson diagonalization with overlap
     ethr =  1.43E-08,  avg # of iterations =  2.0

     negative rho (up, down):  4.804E-03 0.000E+00

     total cpu time spent up to now is      131.4 secs

     total energy              =     -85.98744897 Ry
     estimated scf accuracy    <       0.00017642 Ry

     iteration #  3     ecut=    40.00 Ry     beta= 0.70
     Davidson diagonalization with overlap
     ethr =  1.43E-08,  avg # of iterations =  2.0

     negative rho (up, down):  4.804E-03 0.000E+00

     total cpu time spent up to now is      131.5 secs

     End of self-consistent calculation

          k = 0.0000 0.0000 0.0000 ( 11001 PWs)   bands (ev):

   -21.5299 -19.0019 -16.7038 -10.8772 -10.8720 -10.4031  -7.3050  -7.3031
    -6.9949  -6.9607  -6.9602  -0.9565  -0.5375   0.3411   0.5169

     the Fermi energy is    -6.4540 ev

!    total energy              =     -85.98746036 Ry
     estimated scf accuracy    <       0.00000068 Ry
     smearing contrib. (-TS)   =      -0.05924098 Ry
     internal energy E=F+TS    =     -85.92821938 Ry

     convergence has been achieved in   3 iterations

     negative rho (up, down):  4.804E-03 0.000E+00
  * IN ARTn_QE::           6
 Elements:H  C  Cl 

     Forces acting on atoms (cartesian axes, Ry/au):

     atom    1 type  2   force =     0.00006262   -0.00004358    0.00026353
     atom    2 type  3   force =    -0.00000218    0.00037118    0.00033276
     atom    3 type  1   force =     0.00007381   -0.00007264    0.00009315
     atom    4 type  1   force =    -0.00013027   -0.00004359    0.00007336
     atom    5 type  1   force =    -0.00000325   -0.00022191    0.00041332
     atom    6 type  3   force =    -0.00000074    0.00001055   -0.00117612

     Total force =     0.001404     Total SCF correction =     0.001828
     SCF correction compared to forces is large: reduce conv_thr to get better values

     Entering FIRE :       iteration =   175

     FIRE Parameters: P = 0.00000002, dt = 12.86, alpha = 0.181 nsteppos =  15 at step175


ATOMIC_POSITIONS (angstrom)
C            -0.0000435130       -0.0013282810        5.0227711610
Cl            0.0000043093        0.0898934876        6.8049501558
H             0.8973632538        0.5007744624        4.6499201442
H            -0.8980749451        0.4996839569        4.6500204651
H             0.0005895477       -1.0540315915        4.7264790593
Cl            0.0013751682       -0.0474029892        1.7132127253



     Writing config-only to output data dir ./pwscf.save/
     NEW-OLD atomic charge density approx. for the potential

     Check: negative core charge=   -0.000002

     negative rho (up, down):  4.802E-03 0.000E+00

     total cpu time spent up to now is      131.8 secs

     Self-consistent Calculation

     iteration #  1     ecut=    40.00 Ry     beta= 0.70
     Davidson diagonalization with overlap
     ethr =  1.00E-06,  avg # of iterations =  2.0

     negative rho (up, down):  4.802E-03 0.000E+00

     total cpu time spent up to now is      131.9 secs

     total energy              =     -85.98740872 Ry
     estimated scf accuracy    <       0.00006771 Ry

     iteration #  2     ecut=    40.00 Ry     beta= 0.70
     Davidson diagonalization with overlap
     ethr =  3.22E-07,  avg # of iterations =  2.0

     negative rho (up, down):  4.802E-03 0.000E+00

     total cpu time spent up to now is      132.0 secs

     total energy              =     -85.98706251 Ry
     estimated scf accuracy    <       0.00677701 Ry

     iteration #  3     ecut=    40.00 Ry     beta= 0.70
     Davidson diagonalization with overlap
     ethr =  3.22E-07,  avg # of iterations =  2.0

     negative rho (up, down):  4.802E-03 0.000E+00

     total cpu time spent up to now is      132.1 secs

     total energy              =     -85.98746319 Ry
     estimated scf accuracy    <       0.00000211 Ry

     iteration #  4     ecut=    40.00 Ry     beta= 0.70
     Davidson diagonalization with overlap
     ethr =  1.00E-08,  avg # of iterations =  2.0

     negative rho (up, down):  4.802E-03 0.000E+00

     total cpu time spent up to now is      132.2 secs

     End of self-consistent calculation

          k = 0.0000 0.0000 0.0000 ( 11001 PWs)   bands (ev):

   -21.5314 -19.0008 -16.7054 -10.8789 -10.8736 -10.4044  -7.3060  -7.3041
    -6.9941  -6.9599  -6.9594  -0.9573  -0.5388   0.3413   0.5165

     the Fermi energy is    -6.4535 ev

!    total energy              =     -85.98746318 Ry
     estimated scf accuracy    <       0.00000038 Ry
     smearing contrib. (-TS)   =      -0.05921683 Ry
     internal energy E=F+TS    =     -85.92824635 Ry

     convergence has been achieved in   4 iterations

     negative rho (up, down):  4.802E-03 0.000E+00
  * IN ARTn_QE::           6
 Elements:H  C  Cl 

     Forces acting on atoms (cartesian axes, Ry/au):

     atom    1 type  2   force =     0.00002353   -0.00005147    0.00012902
     atom    2 type  3   force =    -0.00000034    0.00043196    0.00046594
     atom    3 type  1   force =     0.00003982   -0.00010707    0.00010877
     atom    4 type  1   force =    -0.00006057   -0.00009599    0.00010156
     atom    5 type  1   force =    -0.00000145   -0.00017927    0.00043314
     atom    6 type  3   force =    -0.00000099    0.00000184   -0.00123843

     Total force =     0.001492     Total SCF correction =     0.000958
     SCF correction compared to forces is large: reduce conv_thr to get better values

     Entering FIRE :       iteration =   176

     FIRE Parameters: P = 0.00000002, dt = 14.14, alpha = 0.179 nsteppos =  16 at step176


ATOMIC_POSITIONS (angstrom)
C            -0.0000252308       -0.0013707316        5.0229818288
Cl            0.0000038942        0.0902749846        6.8052439487
H             0.8973886665        0.5006656240        4.6500432381
H            -0.8981158096        0.4995834192        4.6501380664
H             0.0005880265       -1.0541741358        4.7269479319
Cl            0.0013742740       -0.0473901151        1.7119986969



     Writing config-only to output data dir ./pwscf.save/
     NEW-OLD atomic charge density approx. for the potential

     Check: negative core charge=   -0.000002

     negative rho (up, down):  4.799E-03 0.000E+00

     total cpu time spent up to now is      132.5 secs

     Self-consistent Calculation

     iteration #  1     ecut=    40.00 Ry     beta= 0.70
     Davidson diagonalization with overlap
     ethr =  1.00E-06,  avg # of iterations =  2.0

     negative rho (up, down):  4.799E-03 0.000E+00

     total cpu time spent up to now is      132.6 secs

     total energy              =     -85.98742645 Ry
     estimated scf accuracy    <       0.00004851 Ry

     iteration #  2     ecut=    40.00 Ry     beta= 0.70
     Davidson diagonalization with overlap
     ethr =  2.31E-07,  avg # of iterations =  2.0

     negative rho (up, down):  4.799E-03 0.000E+00

     total cpu time spent up to now is      132.7 secs

     total energy              =     -85.98726179 Ry
     estimated scf accuracy    <       0.00321449 Ry

     iteration #  3     ecut=    40.00 Ry     beta= 0.70
     Davidson diagonalization with overlap
     ethr =  2.31E-07,  avg # of iterations =  2.0

     negative rho (up, down):  4.799E-03 0.000E+00

     total cpu time spent up to now is      132.8 secs

     total energy              =     -85.98746661 Ry
     estimated scf accuracy    <       0.00000144 Ry

     iteration #  4     ecut=    40.00 Ry     beta= 0.70
     Davidson diagonalization with overlap
     ethr =  6.84E-09,  avg # of iterations =  2.0

     negative rho (up, down):  4.799E-03 0.000E+00

     total cpu time spent up to now is      132.9 secs

     End of self-consistent calculation

          k = 0.0000 0.0000 0.0000 ( 11001 PWs)   bands (ev):

   -21.5300 -19.0005 -16.7050 -10.8784 -10.8731 -10.4033  -7.3055  -7.3035
    -6.9939  -6.9597  -6.9592  -0.9576  -0.5390   0.3411   0.5165

     the Fermi energy is    -6.4533 ev

!    total energy              =     -85.98746652 Ry
     estimated scf accuracy    <       0.00000032 Ry
     smearing contrib. (-TS)   =      -0.05922198 Ry
     internal energy E=F+TS    =     -85.92824454 Ry

     convergence has been achieved in   4 iterations

     negative rho (up, down):  4.799E-03 0.000E+00
  * IN ARTn_QE::           6
 Elements:H  C  Cl 

     Forces acting on atoms (cartesian axes, Ry/au):

     atom    1 type  2   force =    -0.00003137   -0.00003802    0.00026831
     atom    2 type  3   force =     0.00000190    0.00039928    0.00030336
     atom    3 type  1   force =     0.00002122   -0.00011222    0.00011824
     atom    4 type  1   force =     0.00000787   -0.00012579    0.00012832
     atom    5 type  1   force =     0.00000135   -0.00012908    0.00044999
     atom    6 type  3   force =    -0.00000097    0.00000583   -0.00126822

     Total force =     0.001488     Total SCF correction =     0.001317
     SCF correction compared to forces is large: reduce conv_thr to get better values

     Entering FIRE :       iteration =   177

     FIRE Parameters: P = 0.00000002, dt = 15.56, alpha = 0.177 nsteppos =  17 at step177


ATOMIC_POSITIONS (angstrom)
C            -0.0000189746       -0.0014216176        5.0232604834
Cl            0.0000041426        0.0907511944        6.8056093273
H             0.8974186241        0.5005303179        4.6501934166
H            -0.8981502102        0.4994511760        4.6502865811
H             0.0005870929       -1.0543454724        4.7275198486
Cl            0.0013731460       -0.0473765530        1.7104840537



     Writing config-only to output data dir ./pwscf.save/
     NEW-OLD atomic charge density approx. for the potential

     Check: negative core charge=   -0.000002

     negative rho (up, down):  4.796E-03 0.000E+00

     total cpu time spent up to now is      133.1 secs

     Self-consistent Calculation

     iteration #  1     ecut=    40.00 Ry     beta= 0.70
     Davidson diagonalization with overlap
     ethr =  1.00E-06,  avg # of iterations =  3.0

     Threshold (ethr) on eigenvalues was too large:
     Diagonalizing with lowered threshold

     Davidson diagonalization with overlap
     ethr =  9.58E-08,  avg # of iterations =  1.0

     negative rho (up, down):  4.796E-03 0.000E+00

     total cpu time spent up to now is      133.3 secs

     total energy              =     -85.98745492 Ry
     estimated scf accuracy    <       0.00001972 Ry

     iteration #  2     ecut=    40.00 Ry     beta= 0.70
     Davidson diagonalization with overlap
     ethr =  9.39E-08,  avg # of iterations =  2.0

     negative rho (up, down):  4.796E-03 0.000E+00

     total cpu time spent up to now is      133.4 secs

     total energy              =     -85.98738196 Ry
     estimated scf accuracy    <       0.00140530 Ry

     iteration #  3     ecut=    40.00 Ry     beta= 0.70
     Davidson diagonalization with overlap
     ethr =  9.39E-08,  avg # of iterations =  2.0

     negative rho (up, down):  4.795E-03 0.000E+00

     total cpu time spent up to now is      133.5 secs

     End of self-consistent calculation

          k = 0.0000 0.0000 0.0000 ( 11001 PWs)   bands (ev):

   -21.5291 -19.0007 -16.7047 -10.8776 -10.8724 -10.4027  -7.3053  -7.3033
    -6.9942  -6.9600  -6.9595  -0.9576  -0.5397   0.3409   0.5164

     the Fermi energy is    -6.4535 ev

!    total energy              =     -85.98747052 Ry
     estimated scf accuracy    <       0.00000024 Ry
     smearing contrib. (-TS)   =      -0.05922761 Ry
     internal energy E=F+TS    =     -85.92824292 Ry

     convergence has been achieved in   3 iterations

     negative rho (up, down):  4.795E-03 0.000E+00
  * IN ARTn_QE::           6
 Elements:H  C  Cl 

     Forces acting on atoms (cartesian axes, Ry/au):

     atom    1 type  2   force =    -0.00005078   -0.00002671    0.00027577
     atom    2 type  3   force =     0.00000258    0.00035362    0.00014886
     atom    3 type  1   force =    -0.00003357   -0.00013359    0.00007879
     atom    4 type  1   force =     0.00008011   -0.00015589    0.00009522
     atom    5 type  1   force =     0.00000225   -0.00004761    0.00041929
     atom    6 type  3   force =    -0.00000059    0.00001019   -0.00101794

     Total force =     0.001227     Total SCF correction =     0.001324
     SCF correction compared to forces is large: reduce conv_thr to get better values

     Entering FIRE :       iteration =   178

     FIRE Parameters: P = 0.00000002, dt = 17.11, alpha = 0.176 nsteppos =  18 at step178


ATOMIC_POSITIONS (angstrom)
C            -0.0000361469       -0.0014797849        5.0236372728
Cl            0.0000055274        0.0913421790        6.8060076747
H             0.8974306926        0.5003475015        4.6503650676
H            -0.8981453697        0.4992611052        4.6504641146
H             0.0005872586       -1.0545222861        4.7282271774
Cl            0.0013718589       -0.0473596694        1.7086524037



     Writing config-only to output data dir ./pwscf.save/
     NEW-OLD atomic charge density approx. for the potential

     Check: negative core charge=   -0.000002

     negative rho (up, down):  4.791E-03 0.000E+00

     total cpu time spent up to now is      133.8 secs

     Self-consistent Calculation

     iteration #  1     ecut=    40.00 Ry     beta= 0.70
     Davidson diagonalization with overlap
     ethr =  1.00E-06,  avg # of iterations =  3.0

     Threshold (ethr) on eigenvalues was too large:
     Diagonalizing with lowered threshold

     Davidson diagonalization with overlap
     ethr =  3.15E-08,  avg # of iterations =  2.0

     negative rho (up, down):  4.791E-03 0.000E+00

     total cpu time spent up to now is      133.9 secs

     total energy              =     -85.98747066 Ry
     estimated scf accuracy    <       0.00000604 Ry

     iteration #  2     ecut=    40.00 Ry     beta= 0.70
     Davidson diagonalization with overlap
     ethr =  2.87E-08,  avg # of iterations =  2.0

     negative rho (up, down):  4.791E-03 0.000E+00

     total cpu time spent up to now is      134.0 secs

     total energy              =     -85.98744798 Ry
     estimated scf accuracy    <       0.00043241 Ry

     iteration #  3     ecut=    40.00 Ry     beta= 0.70
     Davidson diagonalization with overlap
     ethr =  2.87E-08,  avg # of iterations =  2.0

     negative rho (up, down):  4.791E-03 0.000E+00

     total cpu time spent up to now is      134.1 secs

     End of self-consistent calculation

          k = 0.0000 0.0000 0.0000 ( 11001 PWs)   bands (ev):

   -21.5287 -19.0011 -16.7049 -10.8774 -10.8723 -10.4025  -7.3053  -7.3033
    -6.9947  -6.9605  -6.9600  -0.9580  -0.5402   0.3407   0.5164

     the Fermi energy is    -6.4539 ev

!    total energy              =     -85.98747527 Ry
     estimated scf accuracy    <       0.00000017 Ry
     smearing contrib. (-TS)   =      -0.05923441 Ry
     internal energy E=F+TS    =     -85.92824086 Ry

     convergence has been achieved in   3 iterations

     negative rho (up, down):  4.791E-03 0.000E+00
  * IN ARTn_QE::           6
 Elements:H  C  Cl 
     |> Configuration Files: * Start: initp.xsf | sad0001.xsf | min0001.xsf | min0002.xsf
     |> BLOCK FINALIZE..
     !> CLEANING ARTn | Fail: 0
 ARTn calculation converged, stopping
  * PLUGIN_EXT_FORCE::   1.000000000000000E-003   1.00000000000000     

     Forces acting on atoms (cartesian axes, Ry/au):

     atom    1 type  2   force =     0.00000000    0.00000000    0.00000000
     atom    2 type  3   force =     0.00000000    0.00000000    0.00000000
     atom    3 type  1   force =     0.00000000    0.00000000    0.00000000
     atom    4 type  1   force =     0.00000000    0.00000000    0.00000000
     atom    5 type  1   force =     0.00000000    0.00000000    0.00000000
     atom    6 type  3   force =     0.00000000    0.00000000    0.00000000

     Total force =     0.000000     Total SCF correction =     0.001172

     FIRE: convergence achieved in 178 steps

     End of FIRE minimization

     Final energy =     -85.9874752667 Ry

Begin final coordinates
     new unit-cell volume =   5184.00000 a.u.^3 (   768.18954 Ang^3 )
     density =      0.18575 g/cm^3

CELL_PARAMETERS (alat= 12.00000000)
   1.000000000   0.000000000   0.000000000
   0.000000000   1.000000000   0.000000000
   0.000000000   0.000000000   3.000000000

ATOMIC_POSITIONS (angstrom)
C            -0.0000013583       -0.0276252096        4.7199987144
Cl            0.0000067823        0.1299532581        6.4993649119
H             0.8982225960        0.4590537360        4.3298606395
H            -0.8982221407        0.4590605845        4.3298649998
H            -0.0000080946       -1.0923819719        4.4694652354
Cl            0.0000022154        0.0733855829        1.3589240788
End final coordinates



     Writing all to output data dir ./pwscf.save/
 
     init_run     :      0.19s CPU      0.21s WALL (       1 calls)
     electrons    :     87.87s CPU     88.55s WALL (     179 calls)
     update_pot   :     20.54s CPU     22.36s WALL (     178 calls)
     forces       :     14.39s CPU     14.52s WALL (     179 calls)

     Called by init_run:
     wfcinit      :      0.02s CPU      0.02s WALL (       1 calls)
     potinit      :      0.06s CPU      0.07s WALL (       1 calls)
     hinit0       :      0.07s CPU      0.09s WALL (       1 calls)

     Called by electrons:
     c_bands      :     25.16s CPU     25.46s WALL (     849 calls)
     sum_band     :     18.63s CPU     18.75s WALL (     849 calls)
     v_of_rho     :     21.66s CPU     21.76s WALL (     962 calls)
     newd         :     11.29s CPU     11.30s WALL (     962 calls)
     PAW_pot      :     20.88s CPU     20.89s WALL (    1140 calls)
     mix_rho      :      1.73s CPU      1.75s WALL (     849 calls)

     Called by c_bands:
     init_us_2    :      0.95s CPU      0.96s WALL (    1877 calls)
     init_us_2:cp :      0.94s CPU      0.96s WALL (    1877 calls)
     regterg      :     23.59s CPU     23.88s WALL (     849 calls)

     Called by *egterg:
     rdiaghg      :      0.54s CPU      0.55s WALL (    2715 calls)
     h_psi        :     20.14s CPU     20.39s WALL (    2960 calls)
     s_psi        :      0.41s CPU      0.41s WALL (    2960 calls)
     g_psi        :      0.13s CPU      0.13s WALL (    2110 calls)

     Called by h_psi:
     h_psi:calbec :      0.58s CPU      0.59s WALL (    2960 calls)
     vloc_psi     :     18.81s CPU     19.04s WALL (    2960 calls)
     add_vuspsi   :      0.59s CPU      0.60s WALL (    2960 calls)

     General routines
     calbec       :      0.88s CPU      0.94s WALL (    4703 calls)
     fft          :     13.67s CPU     15.48s WALL (   10513 calls)
     ffts         :      0.72s CPU      0.72s WALL (     849 calls)
     fftw         :     18.39s CPU     18.62s WALL (   43574 calls)
 
     Parallel routines
 
     PWSCF        :   2m11.01s CPU   2m14.26s WALL

 
   This run was terminated on:  18:53:50  14Nov2022            

=------------------------------------------------------------------------------=
   JOB DONE.
=------------------------------------------------------------------------------=
