
     Program PWSCF v.7.0 starts on 14Nov2022 at 15:53:40 

     This program is part of the open-source Quantum ESPRESSO suite
     for quantum simulation of materials; please cite
         "P. Giannozzi et al., J. Phys.:Condens. Matter 21 395502 (2009);
         "P. Giannozzi et al., J. Phys.:Condens. Matter 29 465901 (2017);
         "P. Giannozzi et al., J. Chem. Phys. 152 154105 (2020);
          URL http://www.quantum-espresso.org", 
     in publications or presentations arising from this work. More details at
     http://www.quantum-espresso.org/quote

     Parallel version (MPI), running on    16 processors

     MPI processes distributed on     1 nodes
     R & G space division:  proc/nbgrp/npool/nimage =      16
     118156 MiB available memory on the printing compute node when the environment starts
 
     Reading input from relax.Si-vac.in

     Current dimensions of program PWSCF are:
     Max number of different atomic species (ntypx) = 10
     Max number of k-points (npk) =  40000
     Max angular momentum in pseudopotentials (lmaxx) =  4

     File ./pwscf.update deleted, as requested

     File ./pwscf.fire deleted, as requested

     Subspace diagonalization in iterative solution of the eigenvalue problem:
     a serial algorithm will be used

 
     Parallelization info
     --------------------
     sticks:   dense  smooth     PW     G-vecs:    dense   smooth      PW
     Min         148     148     37                 5423     5423     675
     Max         150     150     38                 5426     5426     678
     Sum        2377    2377    593                86791    86791   10827
 
     Using Slab Decomposition
 


     bravais-lattice index     =            0
     lattice parameter (alat)  =      10.1677  a.u.
     unit-cell volume          =    8409.1916 (a.u.)^3
     number of atoms/cell      =           63
     number of atomic types    =            1
     number of electrons       =       252.00
     number of Kohn-Sham states=          160
     kinetic-energy cutoff     =      18.0000  Ry
     charge density cutoff     =      72.0000  Ry
     scf convergence threshold =      1.0E-07
     mixing beta               =       0.2000
     number of iterations used =            8  local-TF  mixing
     energy convergence thresh.=      1.0E-04
     force convergence thresh. =      1.0E-03
     Exchange-correlation=  SLA  PZ   NOGX NOGC
                           (   1   1   0   0   0   0   0)
     nstep                     =          250


     celldm(1)=  10.167669  celldm(2)=   0.000000  celldm(3)=   0.000000
     celldm(4)=   0.000000  celldm(5)=   0.000000  celldm(6)=   0.000000

     crystal axes: (cart. coord. in units of alat)
               a(1) = (   2.000000   0.000000   0.000000 )  
               a(2) = (   0.000000   2.000000   0.000000 )  
               a(3) = (   0.000000   0.000000   2.000000 )  

     reciprocal axes: (cart. coord. in units 2 pi/alat)
               b(1) = (  0.500000  0.000000  0.000000 )  
               b(2) = (  0.000000  0.500000  0.000000 )  
               b(3) = (  0.000000  0.000000  0.500000 )  


     PseudoPot. # 1 for Si read from file:
     ./Si.pz-vbc.UPF
     MD5 check sum: 6dfa03ddd5817404712e03e4d12deb78
     Pseudo is Norm-conserving, Zval =  4.0
     Generated by new atomic code, or converted to UPF format
     Using radial grid of  431 points,  2 beta functions with: 
                l(1) =   0
                l(2) =   1

     atomic species   valence    mass     pseudopotential
        Si             4.00    28.08600     Si( 1.00)

     No symmetry found



   Cartesian axes

     site n.     atom                  positions (alat units)
         1           Si  tau(   1) = (   0.4935449   0.4935449   0.0105331  )
         2           Si  tau(   2) = (   0.5314037   0.5314037   0.9904391  )
         3           Si  tau(   3) = (   0.4928138   1.5085069  -0.0071394  )
         4           Si  tau(   4) = (   0.5337634   1.4694016   1.0124778  )
         5           Si  tau(   5) = (   1.5085069   0.4928138  -0.0071394  )
         6           Si  tau(   6) = (   1.4694016   0.5337634   1.0124778  )
         7           Si  tau(   7) = (   1.5093241   1.5093241   0.0106204  )
         8           Si  tau(   8) = (   1.4692224   1.4692224   0.9909254  )
         9           Si  tau(   9) = (   0.0012154   0.0012154   0.0008059  )
        10           Si  tau(  10) = (   0.0014124   0.0014124   1.0008919  )
        11           Si  tau(  11) = (   0.0016318   1.0020937   0.0000034  )
        12           Si  tau(  12) = (   0.0016921   1.0013535   1.0010664  )
        13           Si  tau(  13) = (   1.0020937   0.0016318   0.0000034  )
        14           Si  tau(  14) = (   1.0013535   0.0016921   1.0010664  )
        15           Si  tau(  15) = (   1.0015071   1.0015071   0.0013520  )
        16           Si  tau(  16) = (   0.5015954  -0.0035527   0.5097232  )
        17           Si  tau(  17) = (   0.5012864   0.0052882   1.4927057  )
        18           Si  tau(  18) = (   0.5070268   1.0041984   0.4959228  )
        19           Si  tau(  19) = (   0.5078515   0.9973136   1.5062904  )
        20           Si  tau(  20) = (   1.5012583   0.0053779   0.5110062  )
        21           Si  tau(  21) = (   1.5015594  -0.0033324   1.4914707  )
        22           Si  tau(  22) = (   1.4957293   0.9976202   0.4950572  )
        23           Si  tau(  23) = (   1.4949662   1.0041889   1.5072859  )
        24           Si  tau(  24) = (  -0.0035527   0.5015954   0.5097232  )
        25           Si  tau(  25) = (   0.0052882   0.5012864   1.4927057  )
        26           Si  tau(  26) = (   0.0053779   1.5012583   0.5110062  )
        27           Si  tau(  27) = (  -0.0033324   1.5015594   1.4914707  )
        28           Si  tau(  28) = (   1.0041984   0.5070268   0.4959228  )
        29           Si  tau(  29) = (   0.9973136   0.5078515   1.5062904  )
        30           Si  tau(  30) = (   0.9976202   1.4957293   0.4950572  )
        31           Si  tau(  31) = (   1.0041889   1.4949662   1.5072859  )
        32           Si  tau(  32) = (   0.7490747   0.2464915   0.2573137  )
        33           Si  tau(  33) = (   0.7535121   0.2604190   1.2462497  )
        34           Si  tau(  34) = (   0.7436827   1.2580742   0.2383027  )
        35           Si  tau(  35) = (   0.8060765   1.1966515   1.2593880  )
        36           Si  tau(  36) = (   1.7528612   0.2487951   0.2547312  )
        37           Si  tau(  37) = (   1.7405671   0.2623979   1.2468870  )
        38           Si  tau(  38) = (   1.7561733   1.2540089   0.2576897  )
        39           Si  tau(  39) = (   1.7415399   1.2478856   1.2462030  )
        40           Si  tau(  40) = (   0.2464915   0.7490747   0.2573137  )
        41           Si  tau(  41) = (   0.2604190   0.7535121   1.2462497  )
        42           Si  tau(  42) = (   0.2487951   1.7528612   0.2547312  )
        43           Si  tau(  43) = (   0.2623979   1.7405671   1.2468870  )
        44           Si  tau(  44) = (   1.2580742   0.7436827   0.2383027  )
        45           Si  tau(  45) = (   1.1966515   0.8060765   1.2593880  )
        46           Si  tau(  46) = (   1.2540089   1.7561733   0.2576897  )
        47           Si  tau(  47) = (   1.2478856   1.7415399   1.2462030  )
        48           Si  tau(  48) = (   0.8024885   0.8024885   0.7432763  )
        49           Si  tau(  49) = (   0.7440225   0.7440225   1.7648347  )
        50           Si  tau(  50) = (   0.7540616   1.7417561   0.7565681  )
        51           Si  tau(  51) = (   0.7479845   1.7551015   1.7454060  )
        52           Si  tau(  52) = (   1.7417561   0.7540616   0.7565681  )
        53           Si  tau(  53) = (   1.7551015   0.7479845   1.7454060  )
        54           Si  tau(  54) = (   1.7399882   1.7399882   0.7564979  )
        55           Si  tau(  55) = (   1.7528815   1.7528815   1.7477770  )
        56           Si  tau(  56) = (   0.2616115   0.2616115   0.7542500  )
        57           Si  tau(  57) = (   0.2496991   0.2496991   1.7480607  )
        58           Si  tau(  58) = (   0.2614410   1.2489420   0.7566660  )
        59           Si  tau(  59) = (   0.2474123   1.2543897   1.7430940  )
        60           Si  tau(  60) = (   1.2489420   0.2614410   0.7566660  )
        61           Si  tau(  61) = (   1.2543897   0.2474123   1.7430940  )
        62           Si  tau(  62) = (   1.1990412   1.1990412   0.7414751  )
        63           Si  tau(  63) = (   1.2589329   1.2589329   1.7647495  )

     number of k points=     1
                       cart. coord. in units 2pi/alat
        k(    1) = (   0.0000000   0.0000000   0.0000000), wk =   2.0000000

     Dense  grid:    86791 G-vectors     FFT dimensions: (  60,  60,  60)

     Estimated max dynamical RAM per process >      19.47 MB

     Estimated total dynamical RAM >     311.58 MB

     Initial potential from superposition of free atoms

     starting charge     251.9688, renormalised to     252.0000
     Starting wfcs are  252 randomized atomic wfcs

     total cpu time spent up to now is        0.2 secs

     Self-consistent Calculation

     iteration #  1     ecut=    18.00 Ry     beta= 0.20
     Davidson diagonalization with overlap
     ethr =  1.00E-02,  avg # of iterations =  3.0

     Threshold (ethr) on eigenvalues was too large:
     Diagonalizing with lowered threshold

     Davidson diagonalization with overlap
     ethr =  7.78E-04,  avg # of iterations =  2.0

     total cpu time spent up to now is        0.7 secs

     total energy              =    -498.82819242 Ry
     estimated scf accuracy    <       2.14296963 Ry

     iteration #  2     ecut=    18.00 Ry     beta= 0.20
     Davidson diagonalization with overlap
     ethr =  8.50E-04,  avg # of iterations =  1.0

     negative rho (up, down):  3.281E-04 0.000E+00

     total cpu time spent up to now is        0.9 secs

     total energy              =    -498.24232857 Ry
     estimated scf accuracy    <       1.59026794 Ry

     iteration #  3     ecut=    18.00 Ry     beta= 0.20
     Davidson diagonalization with overlap
     ethr =  6.31E-04,  avg # of iterations =  2.0

     negative rho (up, down):  4.770E-05 0.000E+00

     total cpu time spent up to now is        1.1 secs

     total energy              =    -498.37428825 Ry
     estimated scf accuracy    <       0.03048090 Ry

     iteration #  4     ecut=    18.00 Ry     beta= 0.20
     Davidson diagonalization with overlap
     ethr =  1.21E-05,  avg # of iterations = 15.0

     total cpu time spent up to now is        1.8 secs

     total energy              =    -498.37933106 Ry
     estimated scf accuracy    <       0.02367234 Ry

     iteration #  5     ecut=    18.00 Ry     beta= 0.20
     Davidson diagonalization with overlap
     ethr =  9.39E-06,  avg # of iterations =  2.0

     total cpu time spent up to now is        2.0 secs

     total energy              =    -498.37892405 Ry
     estimated scf accuracy    <       0.01329270 Ry

     iteration #  6     ecut=    18.00 Ry     beta= 0.20
     Davidson diagonalization with overlap
     ethr =  5.27E-06,  avg # of iterations =  5.0

     total cpu time spent up to now is        2.2 secs

     total energy              =    -498.38086725 Ry
     estimated scf accuracy    <       0.00392406 Ry

     iteration #  7     ecut=    18.00 Ry     beta= 0.20
     Davidson diagonalization with overlap
     ethr =  1.56E-06,  avg # of iterations =  2.0

     total cpu time spent up to now is        2.5 secs

     total energy              =    -498.37988906 Ry
     estimated scf accuracy    <       0.00298485 Ry

     iteration #  8     ecut=    18.00 Ry     beta= 0.20
     Davidson diagonalization with overlap
     ethr =  1.18E-06,  avg # of iterations =  2.0

     total cpu time spent up to now is        2.7 secs

     total energy              =    -498.38026076 Ry
     estimated scf accuracy    <       0.00010837 Ry

     iteration #  9     ecut=    18.00 Ry     beta= 0.20
     Davidson diagonalization with overlap
     ethr =  4.30E-08,  avg # of iterations =  3.0

     total cpu time spent up to now is        2.9 secs

     total energy              =    -498.38027815 Ry
     estimated scf accuracy    <       0.00007433 Ry

     iteration # 10     ecut=    18.00 Ry     beta= 0.20
     Davidson diagonalization with overlap
     ethr =  2.95E-08,  avg # of iterations =  2.0

     total cpu time spent up to now is        3.1 secs

     total energy              =    -498.38025500 Ry
     estimated scf accuracy    <       0.00007520 Ry

     iteration # 11     ecut=    18.00 Ry     beta= 0.20
     Davidson diagonalization with overlap
     ethr =  2.95E-08,  avg # of iterations =  2.0

     total cpu time spent up to now is        3.4 secs

     total energy              =    -498.38027383 Ry
     estimated scf accuracy    <       0.00002334 Ry

     iteration # 12     ecut=    18.00 Ry     beta= 0.20
     Davidson diagonalization with overlap
     ethr =  9.26E-09,  avg # of iterations =  1.0

     total cpu time spent up to now is        3.6 secs

     total energy              =    -498.38026790 Ry
     estimated scf accuracy    <       0.00002206 Ry

     iteration # 13     ecut=    18.00 Ry     beta= 0.20
     Davidson diagonalization with overlap
     ethr =  8.75E-09,  avg # of iterations =  2.0

     total cpu time spent up to now is        3.8 secs

     total energy              =    -498.38026890 Ry
     estimated scf accuracy    <       0.00000280 Ry

     iteration # 14     ecut=    18.00 Ry     beta= 0.20
     Davidson diagonalization with overlap
     ethr =  1.11E-09,  avg # of iterations =  2.0

     total cpu time spent up to now is        4.0 secs

     total energy              =    -498.38026918 Ry
     estimated scf accuracy    <       0.00000032 Ry

     iteration # 15     ecut=    18.00 Ry     beta= 0.20
     Davidson diagonalization with overlap
     ethr =  1.27E-10,  avg # of iterations =  3.0

     total cpu time spent up to now is        4.3 secs

     End of self-consistent calculation

          k = 0.0000 0.0000 0.0000 ( 10827 PWs)   bands (ev):

    -5.8158  -4.7472  -4.7340  -4.7169  -4.7158  -4.7148  -4.6284  -3.8122
    -3.7821  -3.7798  -3.7442  -3.7378  -3.7295  -3.7276  -3.7244  -3.7052
    -3.6673  -3.6635  -3.5837  -3.3969  -3.3930  -3.3377  -2.9031  -1.6134
    -1.6107  -1.6020  -1.6004  -1.5889  -1.5827  -1.4602  -1.4599  -1.4492
    -1.4020  -1.3898  -1.3678  -1.3656  -1.3608  -1.2905  -1.2711  -1.2662
    -0.9042  -0.8701  -0.7818  -0.7796  -0.3251   0.7513   0.7543   0.7543
     0.7558   0.7671   0.7850   0.7851   0.7865   0.8487   0.8917   0.8947
     1.7465   2.1971   2.2002   2.2043   2.2089   2.2177   2.2617   2.2620
     2.2985   2.3025   2.3134   2.3144   2.3289   2.3682   2.3689   2.3921
     2.4037   2.4047   2.4162   2.4165   2.4287   2.4443   2.5378   2.5754
     2.5781   2.7848   2.8094   2.9238   2.9258   2.9265   3.3364   3.3397
     3.3429   3.5135   3.5287   3.5319   3.8317   4.3020   4.3106   4.3114
     4.3123   4.3130   4.3162   4.3714   4.3736   4.4403   4.4706   4.4714
     4.4842   4.8419   4.8927   4.9155   4.9169   4.9179   4.9568   4.9666
     4.9672   4.9691   5.0081   5.0104   5.0260   5.0586   5.1172   5.1181
     5.1240   5.1246   5.6967   5.9484   5.9533   6.5314   6.7575   6.8199
     6.8303   6.8659   6.9184   6.9536   7.1493   7.1573   7.2936   7.3198
     7.3983   7.4007   7.4196   7.4216   7.7719   7.8828   7.8842   8.0120
     8.5426   8.5997   8.6688   8.6692   8.7046   8.7137   8.7164   8.7253
     8.7391   8.7414   8.7499   8.8330   8.8798   8.9439   8.9464   9.2450

     highest occupied, lowest unoccupied level (ev):     6.5314    6.7575

!    total energy              =    -498.38026923 Ry
     estimated scf accuracy    <       0.00000004 Ry

     convergence has been achieved in  15 iterations
  * IN ARTn_QE::          63
 Elements:Si 
     |> Initialize_ARTn()
     |> NPERP_LIMITATION:: Actual nperp 3
     |> NPERP_LIMITATION::List: 3 8 12 16 -1
 --------------------------------------------------
  * ARTn::UNITS::E2au::      1.0000     au2E      1.0000    
  * ARTn::UNITS::L2au::      1.0000     au2L      1.0000    
  * ARTn::UNITS::T2au::      1.0000     au2T      1.0000    
  * ARTn::UNITS::F2au::      1.0000     au2F      1.0000    
  * ARTn::UNITS::H2au::      1.0000     au2H      1.0000    
  * ARTn::UNITS::Mass::      911.44    
 --------------------------------------------------

     Forces acting on atoms (cartesian axes, Ry/au):

     atom    1 type  1   force =     0.00000000    0.00000000    0.00000000
     atom    2 type  1   force =     0.00000000    0.00000000    0.00000000
     atom    3 type  1   force =     0.00000000    0.00000000    0.00000000
     atom    4 type  1   force =     0.00000000    0.00000000    0.00000000
     atom    5 type  1   force =     0.00000000    0.00000000    0.00000000
     atom    6 type  1   force =     0.00000000    0.00000000    0.00000000
     atom    7 type  1   force =     0.00000000    0.00000000    0.00000000
     atom    8 type  1   force =     0.00000000    0.00000000    0.00000000
     atom    9 type  1   force =     0.00000000    0.00000000    0.00000000
     atom   10 type  1   force =     0.00000000    0.00000000    0.00000000
     atom   11 type  1   force =     0.00000000    0.00000000    0.00000000
     atom   12 type  1   force =     0.00000000    0.00000000    0.00000000
     atom   13 type  1   force =     0.00000000    0.00000000    0.00000000
     atom   14 type  1   force =     0.00000000    0.00000000    0.00000000
     atom   15 type  1   force =     0.00000000    0.00000000    0.00000000
     atom   16 type  1   force =     0.00000000    0.00000000    0.00000000
     atom   17 type  1   force =     0.00000000    0.00000000    0.00000000
     atom   18 type  1   force =     0.00000000    0.00000000    0.00000000
     atom   19 type  1   force =     0.00000000    0.00000000    0.00000000
     atom   20 type  1   force =     0.00000000    0.00000000    0.00000000
     atom   21 type  1   force =     0.00000000    0.00000000    0.00000000
     atom   22 type  1   force =     0.00000000    0.00000000    0.00000000
     atom   23 type  1   force =     0.00000000    0.00000000    0.00000000
     atom   24 type  1   force =     0.00000000    0.00000000    0.00000000
     atom   25 type  1   force =     0.00000000    0.00000000    0.00000000
     atom   26 type  1   force =     0.00000000    0.00000000    0.00000000
     atom   27 type  1   force =     0.00000000    0.00000000    0.00000000
     atom   28 type  1   force =     0.00000000    0.00000000    0.00000000
     atom   29 type  1   force =     0.00000000    0.00000000    0.00000000
     atom   30 type  1   force =     0.00000000    0.00000000    0.00000000
     atom   31 type  1   force =     0.00000000    0.00000000    0.00000000
     atom   32 type  1   force =     0.00000000    0.00000000    0.00000000
     atom   33 type  1   force =     0.00000000    0.00000000    0.00000000
     atom   34 type  1   force =     0.00000000    0.00000000    0.00000000
     atom   35 type  1   force =     0.00000000    0.00000000    0.00000000
     atom   36 type  1   force =     0.00000000    0.00000000    0.00000000
     atom   37 type  1   force =     0.00000000    0.00000000    0.00000000
     atom   38 type  1   force =     0.00000000    0.00000000    0.00000000
     atom   39 type  1   force =     0.00000000    0.00000000    0.00000000
     atom   40 type  1   force =     0.00000000    0.00000000    0.00000000
     atom   41 type  1   force =     0.00000000    0.00000000    0.00000000
     atom   42 type  1   force =     0.00000000    0.00000000    0.00000000
     atom   43 type  1   force =     0.00000000    0.00000000    0.00000000
     atom   44 type  1   force =     0.00000000    0.00000000    0.00000000
     atom   45 type  1   force =     0.00000000    0.00000000    0.00000000
     atom   46 type  1   force =     0.00000000    0.00000000    0.00000000
     atom   47 type  1   force =     0.00000000    0.00000000    0.00000000
     atom   48 type  1   force =     0.47481709    0.47481709    0.61630193
     atom   49 type  1   force =     0.00000000    0.00000000    0.00000000
     atom   50 type  1   force =     0.00000000    0.00000000    0.00000000
     atom   51 type  1   force =     0.00000000    0.00000000    0.00000000
     atom   52 type  1   force =     0.00000000    0.00000000    0.00000000
     atom   53 type  1   force =     0.00000000    0.00000000    0.00000000
     atom   54 type  1   force =     0.00000000    0.00000000    0.00000000
     atom   55 type  1   force =     0.00000000    0.00000000    0.00000000
     atom   56 type  1   force =     0.00000000    0.00000000    0.00000000
     atom   57 type  1   force =     0.00000000    0.00000000    0.00000000
     atom   58 type  1   force =     0.00000000    0.00000000    0.00000000
     atom   59 type  1   force =     0.00000000    0.00000000    0.00000000
     atom   60 type  1   force =     0.00000000    0.00000000    0.00000000
     atom   61 type  1   force =     0.00000000    0.00000000    0.00000000
     atom   62 type  1   force =     0.00000000    0.00000000    0.00000000
     atom   63 type  1   force =     0.00000000    0.00000000    0.00000000

     Total force =     0.911444     Total SCF correction =     0.000221

     Entering FIRE :       iteration =     1

     FIRE Parameters: P = 0.00000000, dt = 20.00, alpha = 0.000 nsteppos =   1 at step  1


ATOMIC_POSITIONS (angstrom)
Si            2.6555175930        2.6555175930        0.0566731860
Si            2.8592173310        2.8592173310        5.3290564000
Si            2.6515838830        8.1165199970       -0.0384133760
Si            2.8719133670        7.9061137800        5.4476359040
Si            8.1165199970        2.6515838830       -0.0384133760
Si            7.9061137800        2.8719133670        5.4476359040
Si            8.1209167360        8.1209167360        0.0571427950
Si            7.9051495360        7.9051495360        5.3316733200
Si            0.0065392290        0.0065392290        0.0043360460
Si            0.0075994850        0.0075994850        5.3852978040
Si            0.0087800180        5.3917641390        0.0000183000
Si            0.0091042570        5.3877814200        5.3862366900
Si            5.3917641390        0.0087800180        0.0000183000
Si            5.3877814200        0.0091042570        5.3862366900
Si            5.3886077680        5.3886077680        0.0072744920
Si            2.6988337570       -0.0191154980        2.7425649670
Si            2.6971710920        0.0284533680        8.0315015460
Si            2.7280573720        5.4030883130        2.6683120660
Si            2.7324945100        5.3660450390        8.1045939260
Si            8.0775186900        0.0289358580        2.7494685780
Si            8.0791389540       -0.0179301480        8.0248564710
Si            8.0477702320        5.3676946130        2.6636545090
Si            8.0436642870        5.4030373480        8.1099501490
Si           -0.0191154980        2.6988337570        2.7425649670
Si            0.0284533680        2.6971710920        8.0315015460
Si            0.0289358580        8.0775186900        2.7494685780
Si           -0.0179301480        8.0791389540        8.0248564710
Si            5.4030883130        2.7280573720        2.6683120660
Si            5.3660450390        2.7324945100        8.1045939260
Si            5.3676946130        8.0477702320        2.6636545090
Si            5.4030373480        8.0436642870        8.1099501490
Si            4.0303957410        1.3262471660        1.3844761880
Si            4.0542708790        1.4011839140        6.7054452920
Si            4.0013840260        6.7690668240        1.2821876990
Si            4.3370936060        6.4385821180        6.7761358990
Si            9.4312678020        1.3386418140        1.3705811810
Si            9.3651196650        1.4118317250        6.7088742630
Si            9.4490887190        6.7471935070        1.3864991760
Si            9.3703538090        6.7142473080        6.7051938100
Si            1.3262471660        4.0303957410        1.3844761880
Si            1.4011839140        4.0542708790        6.7054452920
Si            1.3386418140        9.4312678020        1.3705811810
Si            1.4118317250        9.3651196650        6.7088742630
Si            6.7690668240        4.0013840260        1.2821876990
Si            6.4385821180        4.3370936060        6.7761358990
Si            6.7471935070        9.4490887190        1.3864991760
Si            6.7142473080        9.3703538090        6.7051938100
Si            4.4280586360        4.4280586360        4.1423254136
Si            4.0032123420        4.0032123420        9.4956910850
Si            4.0572276870        9.3715169560        4.0707139530
Si            4.0245300220        9.4433217150        9.3911550440
Si            9.3715169560        4.0572276870        4.0707139530
Si            9.4433217150        4.0245300220        9.3911550440
Si            9.3620049690        9.3620049690        4.0703359160
Si            9.4313772370        9.4313772370        9.4039123010
Si            1.4076001470        1.4076001470        4.0582412240
Si            1.3435056820        1.3435056820        9.4054387240
Si            1.4066831430        6.7199312180        4.0712403930
Si            1.3312015540        6.7492422760        9.3787153890
Si            6.7199312180        1.4066831430        4.0712403930
Si            6.7492422760        1.3312015540        9.3787153890
Si            6.4514401730        6.4514401730        3.9895062850
Si            6.7736870440        6.7736870440        9.4952327140



     Writing config-only to output data dir ./pwscf.save/
     NEW-OLD atomic charge density approx. for the potential

     total cpu time spent up to now is        4.3 secs

     Self-consistent Calculation

     iteration #  1     ecut=    18.00 Ry     beta= 0.20
     Davidson diagonalization with overlap
     ethr =  1.00E-06,  avg # of iterations =  9.0

     total cpu time spent up to now is        4.9 secs

     total energy              =    -498.37344425 Ry
     estimated scf accuracy    <       0.00499472 Ry

     iteration #  2     ecut=    18.00 Ry     beta= 0.20
     Davidson diagonalization with overlap
     ethr =  1.98E-06,  avg # of iterations =  1.0

     total cpu time spent up to now is        5.1 secs

     total energy              =    -498.37224088 Ry
     estimated scf accuracy    <       0.00349271 Ry

     iteration #  3     ecut=    18.00 Ry     beta= 0.20
     Davidson diagonalization with overlap
     ethr =  1.39E-06,  avg # of iterations =  3.0

     total cpu time spent up to now is        5.3 secs

     total energy              =    -498.37273397 Ry
     estimated scf accuracy    <       0.00006740 Ry

     iteration #  4     ecut=    18.00 Ry     beta= 0.20
     Davidson diagonalization with overlap
     ethr =  2.67E-08,  avg # of iterations =  3.0

     total cpu time spent up to now is        5.6 secs

     total energy              =    -498.37272822 Ry
     estimated scf accuracy    <       0.00004093 Ry

     iteration #  5     ecut=    18.00 Ry     beta= 0.20
     Davidson diagonalization with overlap
     ethr =  1.62E-08,  avg # of iterations =  2.0

     total cpu time spent up to now is        5.8 secs

     total energy              =    -498.37273005 Ry
     estimated scf accuracy    <       0.00001041 Ry

     iteration #  6     ecut=    18.00 Ry     beta= 0.20
     Davidson diagonalization with overlap
     ethr =  4.13E-09,  avg # of iterations =  2.0

     total cpu time spent up to now is        6.0 secs

     total energy              =    -498.37273064 Ry
     estimated scf accuracy    <       0.00000295 Ry

     iteration #  7     ecut=    18.00 Ry     beta= 0.20
     Davidson diagonalization with overlap
     ethr =  1.17E-09,  avg # of iterations =  2.0

     total cpu time spent up to now is        6.2 secs

     total energy              =    -498.37273076 Ry
     estimated scf accuracy    <       0.00000055 Ry

     iteration #  8     ecut=    18.00 Ry     beta= 0.20
     Davidson diagonalization with overlap
     ethr =  2.16E-10,  avg # of iterations =  2.0

     total cpu time spent up to now is        6.4 secs

     total energy              =    -498.37273082 Ry
     estimated scf accuracy    <       0.00000012 Ry

     iteration #  9     ecut=    18.00 Ry     beta= 0.20
     Davidson diagonalization with overlap
     ethr =  4.74E-11,  avg # of iterations =  2.0

     total cpu time spent up to now is        6.7 secs

     End of self-consistent calculation

          k = 0.0000 0.0000 0.0000 ( 10827 PWs)   bands (ev):

    -5.8106  -4.7404  -4.7323  -4.7133  -4.7087  -4.7008  -4.6236  -3.8061
    -3.7800  -3.7720  -3.7437  -3.7298  -3.7262  -3.7229  -3.7196  -3.6993
    -3.6606  -3.6416  -3.5904  -3.3859  -3.3597  -3.2957  -2.9164  -1.6087
    -1.6040  -1.6006  -1.5999  -1.5899  -1.5830  -1.4537  -1.4512  -1.4408
    -1.3963  -1.3728  -1.3670  -1.3559  -1.3413  -1.2991  -1.2602  -1.1714
    -0.9035  -0.8659  -0.7844  -0.7726  -0.4002   0.7522   0.7554   0.7581
     0.7607   0.7792   0.7846   0.8083   0.8171   0.8339   0.8951   0.8976
     1.6954   2.1923   2.1981   2.2002   2.2102   2.2235   2.2631   2.2653
     2.3015   2.3066   2.3217   2.3274   2.3303   2.3755   2.3839   2.3990
     2.4075   2.4132   2.4180   2.4219   2.4516   2.4644   2.5215   2.5707
     2.6018   2.8076   2.8166   2.9068   2.9288   2.9295   3.3436   3.3532
     3.3692   3.5098   3.5313   3.5352   3.7032   4.3049   4.3137   4.3142
     4.3181   4.3218   4.3403   4.3876   4.3894   4.4450   4.4744   4.4753
     4.4849   4.8527   4.9055   4.9163   4.9190   4.9214   4.9489   4.9646
     4.9670   4.9700   5.0172   5.0193   5.0263   5.0863   5.1143   5.1249
     5.1952   5.2345   5.6604   5.9384   5.9477   6.5358   6.7427   6.8155
     6.8258   6.8684   6.9099   6.9552   7.1524   7.1546   7.2869   7.3275
     7.3814   7.3937   7.4117   7.4253   7.7799   7.8804   7.8907   7.9858
     8.5408   8.5743   8.6656   8.6815   8.7017   8.7091   8.7211   8.7309
     8.7394   8.7515   8.7624   8.8100   8.8837   8.9237   8.9489   9.2236

     highest occupied, lowest unoccupied level (ev):     6.5358    6.7427

!    total energy              =    -498.37273080 Ry
     estimated scf accuracy    <       0.00000006 Ry

     convergence has been achieved in   9 iterations
  * IN ARTn_QE::          63
 Elements:Si 

     Forces acting on atoms (cartesian axes, Ry/au):

     atom    1 type  1   force =    -0.00065024   -0.00065024   -0.00016126
     atom    2 type  1   force =     0.00524163    0.00524162    0.00361185
     atom    3 type  1   force =    -0.00035304    0.00064254   -0.00112713
     atom    4 type  1   force =    -0.00090812    0.00011108    0.00031997
     atom    5 type  1   force =     0.00064254   -0.00035305   -0.00112713
     atom    6 type  1   force =     0.00011109   -0.00090812    0.00031996
     atom    7 type  1   force =     0.00027760    0.00027759    0.00022934
     atom    8 type  1   force =    -0.00021696   -0.00021695    0.00160753
     atom    9 type  1   force =     0.00035688    0.00035687    0.00074667
     atom   10 type  1   force =    -0.00001340   -0.00001341    0.00184402
     atom   11 type  1   force =     0.00006153    0.00062012    0.00095660
     atom   12 type  1   force =     0.00011063    0.00078312    0.00042025
     atom   13 type  1   force =     0.00062012    0.00006153    0.00095659
     atom   14 type  1   force =     0.00078312    0.00011064    0.00042026
     atom   15 type  1   force =     0.00027253    0.00027254    0.00012546
     atom   16 type  1   force =    -0.00039247   -0.00009724   -0.00035137
     atom   17 type  1   force =     0.00004884   -0.00003329   -0.00002805
     atom   18 type  1   force =     0.01661581   -0.00354724    0.01604134
     atom   19 type  1   force =    -0.00016980    0.00074905   -0.00045661
     atom   20 type  1   force =    -0.00046437    0.00008923    0.00037057
     atom   21 type  1   force =    -0.00072717   -0.00045393    0.00021597
     atom   22 type  1   force =     0.00015414   -0.00064481    0.00006070
     atom   23 type  1   force =     0.00027346    0.00124110   -0.00057474
     atom   24 type  1   force =    -0.00009725   -0.00039247   -0.00035137
     atom   25 type  1   force =    -0.00003329    0.00004885   -0.00002805
     atom   26 type  1   force =     0.00008923   -0.00046437    0.00037057
     atom   27 type  1   force =    -0.00045392   -0.00072717    0.00021597
     atom   28 type  1   force =    -0.00354723    0.01661581    0.01604136
     atom   29 type  1   force =     0.00074906   -0.00016982   -0.00045661
     atom   30 type  1   force =    -0.00064480    0.00015415    0.00006070
     atom   31 type  1   force =     0.00124110    0.00027347   -0.00057474
     atom   32 type  1   force =    -0.00199260    0.00201850    0.00148806
     atom   33 type  1   force =    -0.00150206    0.00047389   -0.00055549
     atom   34 type  1   force =    -0.00189389   -0.00090525    0.00011077
     atom   35 type  1   force =    -0.00316316    0.00062951   -0.00075169
     atom   36 type  1   force =    -0.00079837    0.00060055   -0.00036315
     atom   37 type  1   force =     0.00031744    0.00019176   -0.00034414
     atom   38 type  1   force =    -0.00035816    0.00045438   -0.00003070
     atom   39 type  1   force =    -0.00038265   -0.00084362   -0.00033433
     atom   40 type  1   force =     0.00201850   -0.00199260    0.00148806
     atom   41 type  1   force =     0.00047390   -0.00150205   -0.00055549
     atom   42 type  1   force =     0.00060056   -0.00079836   -0.00036315
     atom   43 type  1   force =     0.00019175    0.00031744   -0.00034414
     atom   44 type  1   force =    -0.00090524   -0.00189389    0.00011078
     atom   45 type  1   force =     0.00062952   -0.00316316   -0.00075170
     atom   46 type  1   force =     0.00045437   -0.00035816   -0.00003070
     atom   47 type  1   force =    -0.00084362   -0.00038264   -0.00033433
     atom   48 type  1   force =     0.00640595    0.00640595   -0.00987066
     atom   49 type  1   force =    -0.00019027   -0.00019026    0.00044087
     atom   50 type  1   force =     0.00042529   -0.00024222    0.00010928
     atom   51 type  1   force =    -0.00017657    0.00059912    0.00018074
     atom   52 type  1   force =    -0.00024222    0.00042529    0.00010930
     atom   53 type  1   force =     0.00059912   -0.00017658    0.00018074
     atom   54 type  1   force =     0.00048892    0.00048891   -0.00207333
     atom   55 type  1   force =    -0.00005013   -0.00005014    0.00007783
     atom   56 type  1   force =     0.00137542    0.00137542   -0.00234988
     atom   57 type  1   force =     0.00028491    0.00028491    0.00015207
     atom   58 type  1   force =    -0.00016625   -0.00083436   -0.00168777
     atom   59 type  1   force =     0.00010056   -0.00026257    0.00123094
     atom   60 type  1   force =    -0.00083436   -0.00016624   -0.00168777
     atom   61 type  1   force =    -0.00026257    0.00010055    0.00123095
     atom   62 type  1   force =    -0.00081129   -0.00081129   -0.00017731
     atom   63 type  1   force =    -0.00039455   -0.00039455   -0.00015235

     Total force =     0.038167     Total SCF correction =     0.000330

     Entering FIRE :       iteration =     2

     FIRE Parameters: P = 0.00000000, dt = 22.00, alpha = 0.198 nsteppos =   6 at step  2


ATOMIC_POSITIONS (angstrom)
Si            2.6553348709        2.6553348717        0.0566278703
Si            2.8606902628        2.8606902606        5.3300713544
Si            2.6514846753        8.1167005552       -0.0387301058
Si            2.8716581782        7.9061449954        5.4477258172
Si            8.1167005550        2.6514846739       -0.0387301059
Si            7.9061449958        2.8716581803        5.4477258145
Si            8.1209947420        8.1209947409        0.0572072414
Si            7.9050885697        7.9050885711        5.3321250471
Si            0.0066395141        0.0066395122        0.0045458663
Si            0.0075957196        0.0075957179        5.3858159864
Si            0.0087973093        5.3919383969        0.0002871095
Si            0.0091353461        5.3880014814        5.3863547828
Si            5.3919383961        0.0087973094        0.0002871074
Si            5.3880014809        0.0091353469        5.3863547855
Si            5.3886843504        5.3886843539        0.0073097473
Si            2.6987234711       -0.0191428242        2.7424662290
Si            2.6971848172        0.0284440145        8.0314936648
Si            2.7327265215        5.4020915163        2.6728197880
Si            2.7324467938        5.3662555268        8.1044656143
Si            8.0773881978        0.0289609313        2.7495727107
Si            8.0789346141       -0.0180577042        8.0249171608
Si            8.0478135469        5.3675134178        2.6636715660
Si            8.0437411318        5.4033861043        8.1097886422
Si           -0.0191428248        2.6987234702        2.7424662301
Si            0.0284440134        2.6971848178        8.0314936642
Si            0.0289609316        8.0773881991        2.7495727119
Si           -0.0180577035        8.0789346144        8.0249171606
Si            5.4020915191        2.7327265234        2.6728197918
Si            5.3662555286        2.7324467906        8.1044656166
Si            5.3675134200        8.0478135479        2.6636715647
Si            5.4033861040        8.0437411328        8.1097886431
Si            4.0298358071        1.3268143769        1.3848943414
Si            4.0538487906        1.4013170809        6.7052891968
Si            4.0008518307        6.7688124427        1.2822188275
Si            4.3362047372        6.4387590158        6.7759246705
Si            9.4310434562        1.3388105728        1.3704791342
Si            9.3652088691        1.4118856113        6.7087775567
Si            9.4489880733        6.7473211896        1.3864905477
Si            9.3702462829        6.7140102453        6.7050998600
Si            1.3268143781        4.0298358088        1.3848943422
Si            1.4013170831        4.0538487919        6.7052891954
Si            1.3388105740        9.4310434580        1.3704791344
Si            1.4118856082        9.3652088675        6.7087775579
Si            6.7688124454        4.0008518317        1.2822188294
Si            6.4387590168        4.3362047388        6.7759246676
Si            6.7473211874        9.4489880723        1.3864905482
Si            6.7140102443        9.3702462845        6.7050998597
Si            4.4298587483        4.4298587492        4.1395516942
Si            4.0031588759        4.0031588779        9.4958149732
Si            4.0573471959        9.3714488919        4.0707446628
Si            4.0244804047        9.4434900702        9.3912058335
Si            9.3714488917        4.0573471970        4.0707446662
Si            9.4434900722        4.0244804017        9.3912058320
Si            9.3621423573        9.3621423573        4.0697532965
Si            9.4313631498        9.4313631485        9.4039341712
Si            1.4079866479        1.4079866479        4.0575808937
Si            1.3435857440        1.3435857446        9.4054814563
Si            1.4066364251        6.7196967569        4.0707661189
Si            1.3312298119        6.7491684928        9.3790612912
Si            6.7196967585        1.4066364276        4.0707661180
Si            6.7491684915        1.3312298098        9.3790612926
Si            6.4512121954        6.4512121958        3.9894564609
Si            6.7735761722        6.7735761717        9.4951899015



     Writing config-only to output data dir ./pwscf.save/
     NEW-OLD atomic charge density approx. for the potential

     total cpu time spent up to now is        6.7 secs

     Self-consistent Calculation

     iteration #  1     ecut=    18.00 Ry     beta= 0.20
     Davidson diagonalization with overlap
     ethr =  1.00E-06,  avg # of iterations =  3.0

     Threshold (ethr) on eigenvalues was too large:
     Diagonalizing with lowered threshold

     Davidson diagonalization with overlap
     ethr =  5.97E-09,  avg # of iterations =  4.0

     total cpu time spent up to now is        7.3 secs

     total energy              =    -498.37346322 Ry
     estimated scf accuracy    <       0.00002336 Ry

     iteration #  2     ecut=    18.00 Ry     beta= 0.20
     Davidson diagonalization with overlap
     ethr =  9.27E-09,  avg # of iterations =  1.0

     total cpu time spent up to now is        7.5 secs

     total energy              =    -498.37345708 Ry
     estimated scf accuracy    <       0.00001647 Ry

     iteration #  3     ecut=    18.00 Ry     beta= 0.20
     Davidson diagonalization with overlap
     ethr =  6.54E-09,  avg # of iterations =  2.0

     total cpu time spent up to now is        7.7 secs

     total energy              =    -498.37345974 Ry
     estimated scf accuracy    <       0.00000028 Ry

     iteration #  4     ecut=    18.00 Ry     beta= 0.20
     Davidson diagonalization with overlap
     ethr =  1.11E-10,  avg # of iterations =  3.0

     total cpu time spent up to now is        8.0 secs

     total energy              =    -498.37345974 Ry
     estimated scf accuracy    <       0.00000018 Ry

     iteration #  5     ecut=    18.00 Ry     beta= 0.20
     Davidson diagonalization with overlap
     ethr =  7.21E-11,  avg # of iterations =  2.0

     total cpu time spent up to now is        8.2 secs

     total energy              =    -498.37345973 Ry
     estimated scf accuracy    <       0.00000010 Ry

     iteration #  6     ecut=    18.00 Ry     beta= 0.20
     Davidson diagonalization with overlap
     ethr =  3.99E-11,  avg # of iterations =  2.0

     total cpu time spent up to now is        8.4 secs

     End of self-consistent calculation

          k = 0.0000 0.0000 0.0000 ( 10827 PWs)   bands (ev):

    -5.8103  -4.7402  -4.7313  -4.7125  -4.7088  -4.7002  -4.6245  -3.8066
    -3.7802  -3.7721  -3.7429  -3.7292  -3.7247  -3.7216  -3.7193  -3.6991
    -3.6611  -3.6416  -3.5899  -3.3852  -3.3595  -3.2978  -2.9192  -1.6087
    -1.6038  -1.6003  -1.5987  -1.5889  -1.5832  -1.4537  -1.4521  -1.4414
    -1.3959  -1.3723  -1.3657  -1.3545  -1.3396  -1.2987  -1.2613  -1.1772
    -0.9039  -0.8656  -0.7830  -0.7741  -0.3991   0.7531   0.7557   0.7602
     0.7609   0.7791   0.7850   0.8074   0.8147   0.8337   0.8953   0.8994
     1.6950   2.1925   2.1984   2.1993   2.2101   2.2230   2.2637   2.2665
     2.3023   2.3081   2.3222   2.3283   2.3306   2.3756   2.3840   2.3992
     2.4077   2.4132   2.4181   2.4218   2.4500   2.4645   2.5214   2.5691
     2.6012   2.8059   2.8165   2.9082   2.9296   2.9299   3.3433   3.3539
     3.3687   3.5097   3.5311   3.5362   3.7034   4.3047   4.3137   4.3149
     4.3190   4.3229   4.3389   4.3861   4.3895   4.4455   4.4742   4.4745
     4.4850   4.8534   4.9062   4.9167   4.9192   4.9224   4.9495   4.9654
     4.9670   4.9718   5.0180   5.0204   5.0267   5.0853   5.1159   5.1248
     5.1940   5.2270   5.6590   5.9370   5.9487   6.5350   6.7425   6.8181
     6.8244   6.8682   6.9104   6.9553   7.1532   7.1551   7.2868   7.3282
     7.3825   7.3935   7.4116   7.4248   7.7797   7.8807   7.8905   7.9856
     8.5402   8.5746   8.6672   8.6806   8.7013   8.7099   8.7219   8.7303
     8.7396   8.7505   8.7628   8.8086   8.8841   8.9248   8.9480   9.2231

     highest occupied, lowest unoccupied level (ev):     6.5350    6.7425

!    total energy              =    -498.37345973 Ry
     estimated scf accuracy    <       0.00000001 Ry

     convergence has been achieved in   6 iterations
  * IN ARTn_QE::          63
 Elements:Si 

     Forces acting on atoms (cartesian axes, Ry/au):

     atom    1 type  1   force =    -0.00058776   -0.00058776   -0.00018945
     atom    2 type  1   force =     0.00496349    0.00496349    0.00267342
     atom    3 type  1   force =    -0.00035021    0.00048776   -0.00097915
     atom    4 type  1   force =    -0.00100985    0.00017017    0.00009953
     atom    5 type  1   force =     0.00048776   -0.00035020   -0.00097915
     atom    6 type  1   force =     0.00017016   -0.00100985    0.00009953
     atom    7 type  1   force =     0.00023016    0.00023016    0.00009061
     atom    8 type  1   force =    -0.00016102   -0.00016102    0.00125683
     atom    9 type  1   force =     0.00033072    0.00033072    0.00064580
     atom   10 type  1   force =     0.00016262    0.00016262    0.00134910
     atom   11 type  1   force =     0.00030756    0.00051912    0.00110373
     atom   12 type  1   force =     0.00016890    0.00059263    0.00028157
     atom   13 type  1   force =     0.00051912    0.00030756    0.00110374
     atom   14 type  1   force =     0.00059264    0.00016890    0.00028157
     atom   15 type  1   force =     0.00019455    0.00019455    0.00014076
     atom   16 type  1   force =    -0.00027461   -0.00013666   -0.00033352
     atom   17 type  1   force =    -0.00000668    0.00002844    0.00000362
     atom   18 type  1   force =     0.01467746   -0.00358694    0.01400442
     atom   19 type  1   force =    -0.00022831    0.00056862   -0.00029905
     atom   20 type  1   force =    -0.00044799    0.00017612    0.00007163
     atom   21 type  1   force =    -0.00065814   -0.00034390    0.00020725
     atom   22 type  1   force =     0.00015128   -0.00053055   -0.00013703
     atom   23 type  1   force =     0.00017507    0.00093458   -0.00050872
     atom   24 type  1   force =    -0.00013667   -0.00027462   -0.00033352
     atom   25 type  1   force =     0.00002844   -0.00000668    0.00000362
     atom   26 type  1   force =     0.00017612   -0.00044799    0.00007163
     atom   27 type  1   force =    -0.00034390   -0.00065815    0.00020724
     atom   28 type  1   force =    -0.00358694    0.01467746    0.01400441
     atom   29 type  1   force =     0.00056862   -0.00022831   -0.00029906
     atom   30 type  1   force =    -0.00053055    0.00015127   -0.00013703
     atom   31 type  1   force =     0.00093458    0.00017507   -0.00050872
     atom   32 type  1   force =    -0.00120441    0.00252858    0.00209171
     atom   33 type  1   force =    -0.00113016    0.00035072   -0.00034325
     atom   34 type  1   force =    -0.00162566   -0.00079020    0.00028200
     atom   35 type  1   force =    -0.00290802    0.00079061   -0.00056367
     atom   36 type  1   force =    -0.00072976    0.00047365   -0.00027300
     atom   37 type  1   force =     0.00018610    0.00009177   -0.00012106
     atom   38 type  1   force =    -0.00036270    0.00037809    0.00008952
     atom   39 type  1   force =    -0.00026994   -0.00069404   -0.00024807
     atom   40 type  1   force =     0.00252858   -0.00120441    0.00209171
     atom   41 type  1   force =     0.00035072   -0.00113017   -0.00034326
     atom   42 type  1   force =     0.00047365   -0.00072975   -0.00027300
     atom   43 type  1   force =     0.00009177    0.00018610   -0.00012106
     atom   44 type  1   force =    -0.00079019   -0.00162566    0.00028200
     atom   45 type  1   force =     0.00079061   -0.00290801   -0.00056367
     atom   46 type  1   force =     0.00037810   -0.00036269    0.00008951
     atom   47 type  1   force =    -0.00069404   -0.00026994   -0.00024807
     atom   48 type  1   force =     0.00574076    0.00574076   -0.00884570
     atom   49 type  1   force =    -0.00015185   -0.00015185    0.00033408
     atom   50 type  1   force =     0.00035980   -0.00019414    0.00018499
     atom   51 type  1   force =    -0.00001990    0.00052845    0.00014997
     atom   52 type  1   force =    -0.00019414    0.00035980    0.00018499
     atom   53 type  1   force =     0.00052845   -0.00001990    0.00014997
     atom   54 type  1   force =     0.00037890    0.00037890   -0.00159911
     atom   55 type  1   force =    -0.00003657   -0.00003656    0.00010616
     atom   56 type  1   force =     0.00139711    0.00139711   -0.00173569
     atom   57 type  1   force =     0.00016492    0.00016492    0.00005902
     atom   58 type  1   force =     0.00007315   -0.00083437   -0.00130115
     atom   59 type  1   force =    -0.00000372   -0.00026322    0.00100740
     atom   60 type  1   force =    -0.00083438    0.00007315   -0.00130115
     atom   61 type  1   force =    -0.00026322   -0.00000372    0.00100740
     atom   62 type  1   force =    -0.00084266   -0.00084265   -0.00025042
     atom   63 type  1   force =    -0.00030466   -0.00030466   -0.00013900

     Total force =     0.033845     Total SCF correction =     0.000140

     Entering FIRE :       iteration =     3

     FIRE Parameters: P = 0.00000306, dt = 24.20, alpha = 0.196 nsteppos =   7 at step  3


ATOMIC_POSITIONS (angstrom)
Si            2.6549333189        2.6549333218        0.0565104515
Si            2.8640192680        2.8640192633        5.3320603985
Si            2.6512539621        8.1170593663       -0.0394099605
Si            2.8710202181        7.9062420737        5.4478459690
Si            8.1170593694        2.6512539621       -0.0394099589
Si            7.9062420730        2.8710202213        5.4478459634
Si            8.1211576929        8.1211576928        0.0573012268
Si            7.9049689151        7.9049689172        5.3330376528
Si            0.0068632220        0.0068632202        0.0049950794
Si            0.0076587813        0.0076587777        5.3868250327
Si            0.0089381631        5.3923044397        0.0009754442
Si            0.0092317960        5.3884380438        5.3865741733
Si            5.3923044382        0.0089381636        0.0009754438
Si            5.3884380457        0.0092317983        5.3865741793
Si            5.3888315042        5.3888315126        0.0073983916
Si            2.6985138236       -0.0192227838        2.7422427451
Si            2.6971942299        0.0284473518        8.0314881722
Si            2.7428479857        5.3997455795        2.6825237147
Si            2.7323113875        5.3666738207        8.1042300479
Si            8.0770898985        0.0290550072        2.7496940471
Si            8.0784852085       -0.0183109109        8.0250554448
Si            8.0479136132        5.3671365742        2.6636307069
Si            8.0438805647        5.4040760851        8.1094381192
Si           -0.0192227871        2.6985138213        2.7422427470
Si            0.0284473505        2.6971942304        8.0314881725
Si            0.0290550084        8.0770899017        2.7496940507
Si           -0.0183109087        8.0784852081        8.0250554389
Si            5.3997455836        2.7428479910        2.6825237207
Si            5.3666738235        2.7323113815        8.1042300513
Si            5.3671365771        8.0479136130        2.6636307057
Si            5.4040760857        8.0438805671        8.1094381210
Si            4.0288489071        1.3283483155        1.3861181016
Si            4.0530141077        1.4015780345        6.7050110138
Si            3.9997174834        6.7682648708        1.2823614859
Si            4.3342314232        6.4392382337        6.7755077431
Si            9.4305471222        1.3391531892        1.3702774340
Si            9.3653637364        1.4119707346        6.7086426076
Si            9.4487509909        6.7475884681        1.3865194633
Si            9.3700409845        6.7135172453        6.7049154982
Si            1.3283483165        4.0288489096        1.3861181016
Si            1.4015780388        4.0530141092        6.7050110107
Si            1.3391531934        9.4305471260        1.3702774331
Si            1.4119707289        9.3653637333        6.7086426091
Si            6.7682648790        3.9997174836        1.2823614878
Si            6.4392382357        4.3342314283        6.7755077375
Si            6.7475884652        9.4487509913        1.3865194622
Si            6.7135172440        9.3700409856        6.7049154974
Si            4.4337944318        4.4337944350        4.1334873602
Si            4.0030495999        4.0030496029        9.4960609264
Si            4.0575997796        9.3713094379        4.0708473463
Si            4.0244284007        9.4438547038        9.3913119758
Si            9.3713094396        4.0575997800        4.0708473517
Si            9.4438547056        4.0244283935        9.3913119745
Si            9.3624185507        9.3624185499        4.0685851915
Si            9.4313357611        9.4313357610        9.4039968529
Si            1.4088988394        1.4088988389        4.0562883067
Si            1.3437238787        1.3437238798        9.4055433441
Si            1.4066249740        6.7191487655        4.0698154766
Si            1.3312532825        6.7489957800        9.3797784793
Si            6.7191487683        1.4066249764        4.0698154764
Si            6.7489957768        1.3312532795        9.3797784819
Si            6.4506665566        6.4506665609        3.9893101620
Si            6.7733537387        6.7733537379        9.4950952932



     Writing config-only to output data dir ./pwscf.save/
     NEW-OLD atomic charge density approx. for the potential

     total cpu time spent up to now is        8.4 secs

     Self-consistent Calculation

     iteration #  1     ecut=    18.00 Ry     beta= 0.20
     Davidson diagonalization with overlap
     ethr =  1.00E-06,  avg # of iterations =  4.0

     Threshold (ethr) on eigenvalues was too large:
     Diagonalizing with lowered threshold

     Davidson diagonalization with overlap
     ethr =  4.06E-08,  avg # of iterations =  2.0

     total cpu time spent up to now is        9.0 secs

     total energy              =    -498.37475995 Ry
     estimated scf accuracy    <       0.00010770 Ry

     iteration #  2     ecut=    18.00 Ry     beta= 0.20
     Davidson diagonalization with overlap
     ethr =  4.27E-08,  avg # of iterations =  1.0

     total cpu time spent up to now is        9.2 secs

     total energy              =    -498.37472965 Ry
     estimated scf accuracy    <       0.00007838 Ry

     iteration #  3     ecut=    18.00 Ry     beta= 0.20
     Davidson diagonalization with overlap
     ethr =  3.11E-08,  avg # of iterations =  3.0

     total cpu time spent up to now is        9.4 secs

     total energy              =    -498.37474373 Ry
     estimated scf accuracy    <       0.00000215 Ry

     iteration #  4     ecut=    18.00 Ry     beta= 0.20
     Davidson diagonalization with overlap
     ethr =  8.54E-10,  avg # of iterations =  2.0

     total cpu time spent up to now is        9.6 secs

     total energy              =    -498.37474383 Ry
     estimated scf accuracy    <       0.00000062 Ry

     iteration #  5     ecut=    18.00 Ry     beta= 0.20
     Davidson diagonalization with overlap
     ethr =  2.47E-10,  avg # of iterations =  2.0

     total cpu time spent up to now is        9.9 secs

     total energy              =    -498.37474378 Ry
     estimated scf accuracy    <       0.00000031 Ry

     iteration #  6     ecut=    18.00 Ry     beta= 0.20
     Davidson diagonalization with overlap
     ethr =  1.25E-10,  avg # of iterations =  2.0

     total cpu time spent up to now is       10.1 secs

     End of self-consistent calculation

          k = 0.0000 0.0000 0.0000 ( 10827 PWs)   bands (ev):

    -5.8096  -4.7401  -4.7292  -4.7108  -4.7088  -4.6990  -4.6267  -3.8079
    -3.7807  -3.7724  -3.7415  -3.7283  -3.7218  -3.7184  -3.7182  -3.6985
    -3.6619  -3.6419  -3.5885  -3.3840  -3.3597  -3.3026  -2.9255  -1.6086
    -1.6041  -1.5996  -1.5955  -1.5872  -1.5826  -1.4539  -1.4537  -1.4427
    -1.3949  -1.3716  -1.3633  -1.3511  -1.3363  -1.2982  -1.2634  -1.1896
    -0.9049  -0.8648  -0.7800  -0.7771  -0.3972   0.7549   0.7563   0.7613
     0.7639   0.7791   0.7860   0.8056   0.8099   0.8334   0.8959   0.9032
     1.6937   2.1929   2.1972   2.1987   2.2101   2.2220   2.2649   2.2691
     2.3041   2.3115   2.3234   2.3302   2.3315   2.3755   2.3838   2.3998
     2.4079   2.4128   2.4187   2.4222   2.4468   2.4645   2.5210   2.5659
     2.5997   2.8023   2.8167   2.9112   2.9308   2.9312   3.3425   3.3554
     3.3677   3.5093   3.5308   3.5380   3.7037   4.3041   4.3138   4.3164
     4.3210   4.3252   4.3356   4.3828   4.3896   4.4464   4.4730   4.4736
     4.4851   4.8543   4.9071   4.9175   4.9195   4.9250   4.9507   4.9673
     4.9674   4.9756   5.0197   5.0228   5.0277   5.0829   5.1192   5.1249
     5.1915   5.2117   5.6558   5.9344   5.9507   6.5332   6.7420   6.8212
     6.8233   6.8680   6.9114   6.9556   7.1501   7.1607   7.2865   7.3297
     7.3846   7.3928   7.4115   7.4239   7.7793   7.8811   7.8900   7.9852
     8.5387   8.5754   8.6701   8.6783   8.7006   8.7107   8.7242   8.7290
     8.7403   8.7487   8.7639   8.8054   8.8850   8.9270   8.9464   9.2219

     highest occupied, lowest unoccupied level (ev):     6.5332    6.7420

!    total energy              =    -498.37474379 Ry
     estimated scf accuracy    <       0.00000003 Ry

     convergence has been achieved in   6 iterations
  * IN ARTn_QE::          63
 Elements:Si 

     Forces acting on atoms (cartesian axes, Ry/au):

     atom    1 type  1   force =    -0.00043337   -0.00043337   -0.00018808
     atom    2 type  1   force =     0.00433854    0.00433854    0.00079569
     atom    3 type  1   force =    -0.00033484    0.00016092   -0.00066243
     atom    4 type  1   force =    -0.00118718    0.00030413   -0.00030860
     atom    5 type  1   force =     0.00016092   -0.00033485   -0.00066242
     atom    6 type  1   force =     0.00030413   -0.00118718   -0.00030860
     atom    7 type  1   force =     0.00012554    0.00012555   -0.00017149
     atom    8 type  1   force =    -0.00006104   -0.00006104    0.00054937
     atom    9 type  1   force =     0.00026393    0.00026393    0.00044129
     atom   10 type  1   force =     0.00050861    0.00050861    0.00037102
     atom   11 type  1   force =     0.00081838    0.00027540    0.00142436
     atom   12 type  1   force =     0.00027317    0.00021111    0.00002184
     atom   13 type  1   force =     0.00027540    0.00081838    0.00142437
     atom   14 type  1   force =     0.00021111    0.00027317    0.00002183
     atom   15 type  1   force =     0.00004082    0.00004082    0.00017868
     atom   16 type  1   force =    -0.00002205   -0.00016582   -0.00027406
     atom   17 type  1   force =    -0.00010867    0.00013664    0.00006431
     atom   18 type  1   force =     0.01046647   -0.00337598    0.00963976
     atom   19 type  1   force =    -0.00034192    0.00020546    0.00002025
     atom   20 type  1   force =    -0.00042762    0.00034569   -0.00047622
     atom   21 type  1   force =    -0.00051185   -0.00013750    0.00019547
     atom   22 type  1   force =     0.00013274   -0.00031245   -0.00049084
     atom   23 type  1   force =    -0.00001699    0.00031437   -0.00037264
     atom   24 type  1   force =    -0.00016581   -0.00002205   -0.00027406
     atom   25 type  1   force =     0.00013665   -0.00010867    0.00006431
     atom   26 type  1   force =     0.00034570   -0.00042762   -0.00047622
     atom   27 type  1   force =    -0.00013750   -0.00051186    0.00019547
     atom   28 type  1   force =    -0.00337599    0.01046648    0.00963976
     atom   29 type  1   force =     0.00020547   -0.00034192    0.00002025
     atom   30 type  1   force =    -0.00031244    0.00013273   -0.00049084
     atom   31 type  1   force =     0.00031437   -0.00001699   -0.00037265
     atom   32 type  1   force =     0.00030284    0.00345600    0.00320475
     atom   33 type  1   force =    -0.00038635    0.00014129    0.00004973
     atom   34 type  1   force =    -0.00108089   -0.00057860    0.00062786
     atom   35 type  1   force =    -0.00238280    0.00112551   -0.00019241
     atom   36 type  1   force =    -0.00055792    0.00023916   -0.00011481
     atom   37 type  1   force =    -0.00005402   -0.00011365    0.00030374
     atom   38 type  1   force =    -0.00035606    0.00023199    0.00029797
     atom   39 type  1   force =    -0.00004636   -0.00039073   -0.00008834
     atom   40 type  1   force =     0.00345599    0.00030284    0.00320476
     atom   41 type  1   force =     0.00014129   -0.00038635    0.00004972
     atom   42 type  1   force =     0.00023916   -0.00055792   -0.00011481
     atom   43 type  1   force =    -0.00011365   -0.00005401    0.00030374
     atom   44 type  1   force =    -0.00057860   -0.00108089    0.00062786
     atom   45 type  1   force =     0.00112551   -0.00238280   -0.00019240
     atom   46 type  1   force =     0.00023200   -0.00035606    0.00029797
     atom   47 type  1   force =    -0.00039073   -0.00004636   -0.00008833
     atom   48 type  1   force =     0.00426114    0.00426114   -0.00656582
     atom   49 type  1   force =    -0.00007936   -0.00007937    0.00011459
     atom   50 type  1   force =     0.00022349   -0.00009824    0.00031099
     atom   51 type  1   force =     0.00029699    0.00041299    0.00012155
     atom   52 type  1   force =    -0.00009824    0.00022349    0.00031099
     atom   53 type  1   force =     0.00041299    0.00029701    0.00012156
     atom   54 type  1   force =     0.00017381    0.00017382   -0.00065447
     atom   55 type  1   force =     0.00000026    0.00000026    0.00014916
     atom   56 type  1   force =     0.00143230    0.00143231   -0.00049918
     atom   57 type  1   force =    -0.00007372   -0.00007373   -0.00011072
     atom   58 type  1   force =     0.00056881   -0.00086945   -0.00055838
     atom   59 type  1   force =    -0.00021132   -0.00026617    0.00055903
     atom   60 type  1   force =    -0.00086946    0.00056880   -0.00055838
     atom   61 type  1   force =    -0.00026616   -0.00021132    0.00055902
     atom   62 type  1   force =    -0.00088173   -0.00088172   -0.00040002
     atom   63 type  1   force =    -0.00013513   -0.00013513   -0.00012234

     Total force =     0.025231     Total SCF correction =     0.000187

     Entering FIRE :       iteration =     4

     FIRE Parameters: P = 0.00000438, dt = 26.62, alpha = 0.194 nsteppos =   8 at step  4


ATOMIC_POSITIONS (angstrom)
Si            2.6543143746        2.6543143773        0.0562922315
Si            2.8696030414        2.8696030381        5.3343065535
Si            2.6508462534        8.1174751048       -0.0404146160
Si            2.8697342992        7.9065126759        5.4477652366
Si            8.1174751098        2.6508462533       -0.0404146106
Si            7.9065126753        2.8697343025        5.4477652328
Si            8.1213783302        8.1213783322        0.0572804906
Si            7.9048257970        7.9048258022        5.3341800514
Si            0.0072216898        0.0072216890        0.0056610815
Si            0.0080232956        0.0080232905        5.3879447132
Si            0.0095596032        5.3927960510        0.0024499394
Si            0.0094830554        5.3889531649        5.3867819201
Si            5.3927960511        0.0095596026        0.0024499415
Si            5.3889531695        0.0094830558        5.3867819262
Si            5.3889867317        5.3889867398        0.0075853940
Si            2.6983145840       -0.0193942854        2.7418783263
Si            2.6971366381        0.0285332220        8.0315223251
Si            2.7581717601        5.3956173789        2.6969757036
Si            2.7319838773        5.3671693203        8.1040334961
Si            8.0765659800        0.0293481647        2.7495126594
Si            8.0777762173       -0.0186188191        8.0252966433
Si            8.0480828693        5.3666129050        2.6632966575
Si            8.0439938666        5.4048785245        8.1089012610
Si           -0.0193942871        2.6983145793        2.7418783273
Si            0.0285332220        2.6971366384        8.0315223241
Si            0.0293481687        8.0765659836        2.7495126633
Si           -0.0186188177        8.0777762147        8.0252966326
Si            5.3956173816        2.7581717718        2.6969757087
Si            5.3671693298        2.7319838698        8.1040335002
Si            5.3666129130        8.0480828625        2.6632966552
Si            5.4048785313        8.0439938695        8.1089012606
Si            4.0281577426        1.3318052025        1.3891475545
Si            4.0520397085        1.4018951103        6.7047945688
Si            3.9980559929        6.7674283548        1.2828689254
Si            4.3310362018        6.4403460022        6.7750213739
Si            9.4297685744        1.3396020484        1.3700289550
Si            9.3654682559        1.4119772385        6.7087072697
Si            9.4483247602        6.7479661859        1.3867258992
Si            9.3698308510        6.7128431007        6.7046984560
Si            1.3318051991        4.0281577466        1.3891475584
Si            1.4018951145        4.0520397059        6.7047945599
Si            1.3396020531        9.4297685808        1.3700289520
Si            1.4119772316        9.3654682569        6.7087072719
Si            6.7674283630        3.9980559941        1.2828689264
Si            6.4403460065        4.3310362082        6.7750213721
Si            6.7479661867        9.4483247641        1.3867258955
Si            6.7128430984        9.3698308492        6.7046984549
Si            4.4398690873        4.4398690933        4.1241271723
Si            4.0029045684        4.0029045682        9.4963485000
Si            4.0579593122        9.3711261988        4.0711270796
Si            4.0245625019        9.4444285569        9.3914798297
Si            9.3711261996        4.0579593105        4.0711270859
Si            9.4444285531        4.0245625038        9.3914798300
Si            9.3627688708        9.3627688737        4.0671525155
Si            9.4313116357        9.4313116367        9.4041429269
Si            1.4105766082        1.4105766098        4.0548394990
Si            1.3438016058        1.3438016045        9.4055310293
Si            1.4069599568        6.7181353930        4.0686338886
Si            1.3311458654        6.7486811624        9.3807534928
Si            6.7181353961        1.4069599555        4.0686338905
Si            6.7486811582        1.3311458636        9.3807534941
Si            6.4496478234        6.4496478353        3.9889377447
Si            6.7730745530        6.7730745526        9.4949371878



     Writing config-only to output data dir ./pwscf.save/
     NEW-OLD atomic charge density approx. for the potential

     total cpu time spent up to now is       10.1 secs

     Self-consistent Calculation

     iteration #  1     ecut=    18.00 Ry     beta= 0.20
     Davidson diagonalization with overlap
     ethr =  1.00E-06,  avg # of iterations =  5.0

     Threshold (ethr) on eigenvalues was too large:
     Diagonalizing with lowered threshold

     Davidson diagonalization with overlap
     ethr =  8.38E-08,  avg # of iterations =  2.0

     total cpu time spent up to now is       10.7 secs

     total energy              =    -498.37601610 Ry
     estimated scf accuracy    <       0.00023592 Ry

     iteration #  2     ecut=    18.00 Ry     beta= 0.20
     Davidson diagonalization with overlap
     ethr =  9.36E-08,  avg # of iterations =  1.0

     total cpu time spent up to now is       10.9 secs

     total energy              =    -498.37594796 Ry
     estimated scf accuracy    <       0.00017365 Ry

     iteration #  3     ecut=    18.00 Ry     beta= 0.20
     Davidson diagonalization with overlap
     ethr =  6.89E-08,  avg # of iterations =  3.0

     total cpu time spent up to now is       11.1 secs

     total energy              =    -498.37597982 Ry
     estimated scf accuracy    <       0.00000644 Ry

     iteration #  4     ecut=    18.00 Ry     beta= 0.20
     Davidson diagonalization with overlap
     ethr =  2.56E-09,  avg # of iterations =  2.0

     total cpu time spent up to now is       11.3 secs

     total energy              =    -498.37598010 Ry
     estimated scf accuracy    <       0.00000145 Ry

     iteration #  5     ecut=    18.00 Ry     beta= 0.20
     Davidson diagonalization with overlap
     ethr =  5.76E-10,  avg # of iterations =  2.0

     total cpu time spent up to now is       11.6 secs

     total energy              =    -498.37598004 Ry
     estimated scf accuracy    <       0.00000056 Ry

     iteration #  6     ecut=    18.00 Ry     beta= 0.20
     Davidson diagonalization with overlap
     ethr =  2.24E-10,  avg # of iterations =  2.0

     total cpu time spent up to now is       11.8 secs

     End of self-consistent calculation

          k = 0.0000 0.0000 0.0000 ( 10827 PWs)   bands (ev):

    -5.8087  -4.7401  -4.7259  -4.7089  -4.7078  -4.6976  -4.6303  -3.8102
    -3.7809  -3.7733  -3.7392  -3.7276  -3.7185  -3.7164  -3.7128  -3.6972
    -3.6631  -3.6427  -3.5861  -3.3827  -3.3611  -3.3095  -2.9351  -1.6087
    -1.6052  -1.5988  -1.5911  -1.5857  -1.5799  -1.4555  -1.4545  -1.4443
    -1.3933  -1.3712  -1.3598  -1.3466  -1.3332  -1.2981  -1.2660  -1.2068
    -0.9060  -0.8636  -0.7808  -0.7759  -0.3949   0.7560   0.7574   0.7621
     0.7674   0.7792   0.7881   0.8032   0.8038   0.8332   0.8966   0.9088
     1.6912   2.1932   2.1939   2.1987   2.2101   2.2216   2.2665   2.2726
     2.3068   2.3168   2.3252   2.3324   2.3327   2.3750   2.3829   2.4005
     2.4073   2.4118   2.4204   2.4243   2.4427   2.4640   2.5201   2.5615
     2.5972   2.7972   2.8173   2.9156   2.9322   2.9334   3.3415   3.3573
     3.3662   3.5088   3.5305   3.5403   3.7034   4.3033   4.3145   4.3184
     4.3239   4.3277   4.3299   4.3784   4.3892   4.4473   4.4713   4.4726
     4.4854   4.8543   4.9071   4.9191   4.9207   4.9293   4.9522   4.9691
     4.9708   4.9809   5.0220   5.0261   5.0298   5.0796   5.1234   5.1247
     5.1881   5.1914   5.6511   5.9318   5.9530   6.5302   6.7407   6.8164
     6.8296   6.8686   6.9134   6.9559   7.1457   7.1685   7.2858   7.3316
     7.3874   7.3915   7.4117   7.4232   7.7785   7.8816   7.8893   7.9848
     8.5356   8.5766   8.6730   8.6743   8.7002   8.7104   8.7271   8.7282
     8.7416   8.7464   8.7654   8.8009   8.8860   8.9294   8.9444   9.2202

     highest occupied, lowest unoccupied level (ev):     6.5302    6.7407

!    total energy              =    -498.37598005 Ry
     estimated scf accuracy    <       0.00000008 Ry

     convergence has been achieved in   6 iterations
  * IN ARTn_QE::          63
 Elements:Si 

     Forces acting on atoms (cartesian axes, Ry/au):

     atom    1 type  1   force =     0.00000000    0.00000000    0.00000000
     atom    2 type  1   force =     0.00000000    0.00000000    0.00000000
     atom    3 type  1   force =     0.00000000    0.00000000    0.00000000
     atom    4 type  1   force =     0.00000000    0.00000000    0.00000000
     atom    5 type  1   force =     0.00000000    0.00000000    0.00000000
     atom    6 type  1   force =     0.00000000    0.00000000    0.00000000
     atom    7 type  1   force =     0.00000000    0.00000000    0.00000000
     atom    8 type  1   force =     0.00000000    0.00000000    0.00000000
     atom    9 type  1   force =     0.00000000    0.00000000    0.00000000
     atom   10 type  1   force =     0.00000000    0.00000000    0.00000000
     atom   11 type  1   force =     0.00000000    0.00000000    0.00000000
     atom   12 type  1   force =     0.00000000    0.00000000    0.00000000
     atom   13 type  1   force =     0.00000000    0.00000000    0.00000000
     atom   14 type  1   force =     0.00000000    0.00000000    0.00000000
     atom   15 type  1   force =     0.00000000    0.00000000    0.00000000
     atom   16 type  1   force =     0.00000000    0.00000000    0.00000000
     atom   17 type  1   force =     0.00000000    0.00000000    0.00000000
     atom   18 type  1   force =     0.00000000    0.00000000    0.00000000
     atom   19 type  1   force =     0.00000000    0.00000000    0.00000000
     atom   20 type  1   force =     0.00000000    0.00000000    0.00000000
     atom   21 type  1   force =     0.00000000    0.00000000    0.00000000
     atom   22 type  1   force =     0.00000000    0.00000000    0.00000000
     atom   23 type  1   force =     0.00000000    0.00000000    0.00000000
     atom   24 type  1   force =     0.00000000    0.00000000    0.00000000
     atom   25 type  1   force =     0.00000000    0.00000000    0.00000000
     atom   26 type  1   force =     0.00000000    0.00000000    0.00000000
     atom   27 type  1   force =     0.00000000    0.00000000    0.00000000
     atom   28 type  1   force =     0.00000000    0.00000000    0.00000000
     atom   29 type  1   force =     0.00000000    0.00000000    0.00000000
     atom   30 type  1   force =     0.00000000    0.00000000    0.00000000
     atom   31 type  1   force =     0.00000000    0.00000000    0.00000000
     atom   32 type  1   force =     0.00000000    0.00000000    0.00000000
     atom   33 type  1   force =     0.00000000    0.00000000    0.00000000
     atom   34 type  1   force =     0.00000000    0.00000000    0.00000000
     atom   35 type  1   force =     0.00000000    0.00000000    0.00000000
     atom   36 type  1   force =     0.00000000    0.00000000    0.00000000
     atom   37 type  1   force =     0.00000000    0.00000000    0.00000000
     atom   38 type  1   force =     0.00000000    0.00000000    0.00000000
     atom   39 type  1   force =     0.00000000    0.00000000    0.00000000
     atom   40 type  1   force =     0.00000000    0.00000000    0.00000000
     atom   41 type  1   force =     0.00000000    0.00000000    0.00000000
     atom   42 type  1   force =     0.00000000    0.00000000    0.00000000
     atom   43 type  1   force =     0.00000000    0.00000000    0.00000000
     atom   44 type  1   force =     0.00000000    0.00000000    0.00000000
     atom   45 type  1   force =     0.00000000    0.00000000    0.00000000
     atom   46 type  1   force =     0.00000000    0.00000000    0.00000000
     atom   47 type  1   force =     0.00000000    0.00000000    0.00000000
     atom   48 type  1   force =     0.47481709    0.47481709    0.61630193
     atom   49 type  1   force =     0.00000000    0.00000000    0.00000000
     atom   50 type  1   force =     0.00000000    0.00000000    0.00000000
     atom   51 type  1   force =     0.00000000    0.00000000    0.00000000
     atom   52 type  1   force =     0.00000000    0.00000000    0.00000000
     atom   53 type  1   force =     0.00000000    0.00000000    0.00000000
     atom   54 type  1   force =     0.00000000    0.00000000    0.00000000
     atom   55 type  1   force =     0.00000000    0.00000000    0.00000000
     atom   56 type  1   force =     0.00000000    0.00000000    0.00000000
     atom   57 type  1   force =     0.00000000    0.00000000    0.00000000
     atom   58 type  1   force =     0.00000000    0.00000000    0.00000000
     atom   59 type  1   force =     0.00000000    0.00000000    0.00000000
     atom   60 type  1   force =     0.00000000    0.00000000    0.00000000
     atom   61 type  1   force =     0.00000000    0.00000000    0.00000000
     atom   62 type  1   force =     0.00000000    0.00000000    0.00000000
     atom   63 type  1   force =     0.00000000    0.00000000    0.00000000

     Total force =     0.911444     Total SCF correction =     0.000340

     Entering FIRE :       iteration =     5

     FIRE Parameters: P = 0.00000000, dt = 20.00, alpha = 0.000 nsteppos =   1 at step  5


ATOMIC_POSITIONS (angstrom)
Si            2.6543143746        2.6543143773        0.0562922315
Si            2.8696030414        2.8696030381        5.3343065535
Si            2.6508462534        8.1174751048       -0.0404146160
Si            2.8697342992        7.9065126759        5.4477652366
Si            8.1174751098        2.6508462533       -0.0404146106
Si            7.9065126753        2.8697343025        5.4477652328
Si            8.1213783302        8.1213783322        0.0572804906
Si            7.9048257970        7.9048258022        5.3341800514
Si            0.0072216898        0.0072216890        0.0056610815
Si            0.0080232956        0.0080232905        5.3879447132
Si            0.0095596032        5.3927960510        0.0024499394
Si            0.0094830554        5.3889531649        5.3867819201
Si            5.3927960511        0.0095596026        0.0024499415
Si            5.3889531695        0.0094830558        5.3867819262
Si            5.3889867317        5.3889867398        0.0075853940
Si            2.6983145840       -0.0193942854        2.7418783263
Si            2.6971366381        0.0285332220        8.0315223251
Si            2.7581717601        5.3956173789        2.6969757036
Si            2.7319838773        5.3671693203        8.1040334961
Si            8.0765659800        0.0293481647        2.7495126594
Si            8.0777762173       -0.0186188191        8.0252966433
Si            8.0480828693        5.3666129050        2.6632966575
Si            8.0439938666        5.4048785245        8.1089012610
Si           -0.0193942871        2.6983145793        2.7418783273
Si            0.0285332220        2.6971366384        8.0315223241
Si            0.0293481687        8.0765659836        2.7495126633
Si           -0.0186188177        8.0777762147        8.0252966326
Si            5.3956173816        2.7581717718        2.6969757087
Si            5.3671693298        2.7319838698        8.1040335002
Si            5.3666129130        8.0480828625        2.6632966552
Si            5.4048785313        8.0439938695        8.1089012606
Si            4.0281577426        1.3318052025        1.3891475545
Si            4.0520397085        1.4018951103        6.7047945688
Si            3.9980559929        6.7674283548        1.2828689254
Si            4.3310362018        6.4403460022        6.7750213739
Si            9.4297685744        1.3396020484        1.3700289550
Si            9.3654682559        1.4119772385        6.7087072697
Si            9.4483247602        6.7479661859        1.3867258992
Si            9.3698308510        6.7128431007        6.7046984560
Si            1.3318051991        4.0281577466        1.3891475584
Si            1.4018951145        4.0520397059        6.7047945599
Si            1.3396020531        9.4297685808        1.3700289520
Si            1.4119772316        9.3654682569        6.7087072719
Si            6.7674283630        3.9980559941        1.2828689264
Si            6.4403460065        4.3310362082        6.7750213721
Si            6.7479661867        9.4483247641        1.3867258955
Si            6.7128430984        9.3698308492        6.7046984549
Si            4.5501390842        4.5501390903        4.2672551529
Si            4.0029045684        4.0029045682        9.4963485000
Si            4.0579593122        9.3711261988        4.0711270796
Si            4.0245625019        9.4444285569        9.3914798297
Si            9.3711261996        4.0579593105        4.0711270859
Si            9.4444285531        4.0245625038        9.3914798300
Si            9.3627688708        9.3627688737        4.0671525155
Si            9.4313116357        9.4313116367        9.4041429269
Si            1.4105766082        1.4105766098        4.0548394990
Si            1.3438016058        1.3438016045        9.4055310293
Si            1.4069599568        6.7181353930        4.0686338886
Si            1.3311458654        6.7486811624        9.3807534928
Si            6.7181353961        1.4069599555        4.0686338905
Si            6.7486811582        1.3311458636        9.3807534941
[...]
Si            8.0268433936        2.7752459811        5.4037301209
Si            8.1028581917        8.1030687012        0.0282711128
Si            7.8776988926        7.8779475401        5.3290731004
Si            0.0170226410        0.0170679954        0.0171802242
Si            0.0111822840        0.0114521736        5.4010097208
Si            0.0143759344        5.3963771479        0.0621699187
Si            0.0177124698        5.3984443560        5.3992492750
Si            5.3958752001        0.0148518703        0.0621955368
Si            5.3984057594        0.0178254969        5.3992471050
Si            5.3974393080        5.3975698125        0.0251985108
Si            2.7036960706        0.0168436802        2.7348273686
Si            2.7112765881        0.0519342823        8.0481540262
Si            2.7583555375        5.4284594550        2.7019304334
Si            2.7083408871        5.3977258110        8.1125151106
Si            8.0871137666        0.0094675826        2.7430207267
Si            8.0799770385       -0.0227828549        8.0416873532
Si            8.0309615259        5.3628864231        2.6976046198
Si            8.0805809343        5.3888064045        8.1190481482
Si            0.0164547257        2.7037358503        2.7346497194
Si            0.0518260402        2.7116588564        8.0485195486
Si            0.0095349524        8.0873836614        2.7434489229
Si           -0.0231712147        8.0801614148        8.0416482653
Si            5.4286925839        2.7585065860        2.7020910685
Si            5.3972689447        2.7084934327        8.1123840994
Si            5.3625172959        8.0310853851        2.6976318237
Si            5.3887723545        8.0812411046        8.1196681714
Si            4.0347820705        1.3820039168        1.4059413240
Si            4.0620822145        1.4182933454        6.7058021199
Si            3.9987243575        6.7889563711        1.2872365739
Si            4.1062467169        6.6855748041        6.7985723636
Si            9.4374980600        1.3473969717        1.3804806739
Si            9.4063277697        1.3878053441        6.7420744144
Si            9.4110034864        6.7592880492        1.4065580902
Si            9.3676535450        6.7223445863        6.7081763661
Si            1.3814710138        4.0348661564        1.4056752257
Si            1.4182010914        4.0622973016        6.7060096410
Si            1.3473522345        9.4377447785        1.3807917511
Si            1.3874963553        9.4062326792        6.7418146616
Si            6.7889425591        3.9989306293        1.2872292404
Si            6.6849340739        4.1061499731        6.7979824071
Si            6.7587212023        9.4110590312        1.4063074788
Si            6.7222260670        9.3678721027        6.7083463111
Si            4.4089227982        4.4089134297        4.0474249018
Si            4.0426742657        4.0428975693        9.4600644966
Si            4.0637073263        9.4154071067        4.0547246531
Si            4.0375569323        9.4788048516        9.4240908049
Si            9.4152252751        4.0638524414        4.0546320442
Si            9.4783005249        4.0380247254        9.4239369002
Si            9.3539071788        9.3541756812        4.0871982477
Si            9.4358760861        9.4361157446        9.4191424270
Si            1.4233481625        1.4236361958        4.0756372821
Si            1.3613609527        1.3614107915        9.4238874573
Si            1.3836270246        6.7360244581        4.0601598135
Si            1.3078533105        6.7486985468        9.4155038315
Si            6.7361603768        1.3835014665        4.0600890460
Si            6.7483438514        1.3081165417        9.4154507001
Si            6.3690835072        6.3692824861        4.0448829171
Si            6.7537533811        6.7538149320        9.4638241864



     Writing config-only to output data dir ./pwscf.save/
     NEW-OLD atomic charge density approx. for the potential

     total cpu time spent up to now is      252.8 secs

     Self-consistent Calculation

     iteration #  1     ecut=    18.00 Ry     beta= 0.20
     Davidson diagonalization with overlap
     ethr =  1.00E-06,  avg # of iterations =  3.0

     Threshold (ethr) on eigenvalues was too large:
     Diagonalizing with lowered threshold

     Davidson diagonalization with overlap
     ethr =  2.04E-08,  avg # of iterations =  4.0

     total cpu time spent up to now is      253.4 secs

     total energy              =    -498.38079602 Ry
     estimated scf accuracy    <       0.00006814 Ry

     iteration #  2     ecut=    18.00 Ry     beta= 0.20
     Davidson diagonalization with overlap
     ethr =  2.70E-08,  avg # of iterations =  1.0

     total cpu time spent up to now is      253.6 secs

     total energy              =    -498.38078353 Ry
     estimated scf accuracy    <       0.00004903 Ry

     iteration #  3     ecut=    18.00 Ry     beta= 0.20
     Davidson diagonalization with overlap
     ethr =  1.95E-08,  avg # of iterations =  2.0

     total cpu time spent up to now is      253.8 secs

     total energy              =    -498.38078819 Ry
     estimated scf accuracy    <       0.00000093 Ry

     iteration #  4     ecut=    18.00 Ry     beta= 0.20
     Davidson diagonalization with overlap
     ethr =  3.70E-10,  avg # of iterations =  3.0

     total cpu time spent up to now is      254.1 secs

     total energy              =    -498.38078833 Ry
     estimated scf accuracy    <       0.00000048 Ry

     iteration #  5     ecut=    18.00 Ry     beta= 0.20
     Davidson diagonalization with overlap
     ethr =  1.92E-10,  avg # of iterations =  2.0

     total cpu time spent up to now is      254.3 secs

     total energy              =    -498.38078832 Ry
     estimated scf accuracy    <       0.00000016 Ry

     iteration #  6     ecut=    18.00 Ry     beta= 0.20
     Davidson diagonalization with overlap
     ethr =  6.18E-11,  avg # of iterations =  2.0

     total cpu time spent up to now is      254.5 secs

     End of self-consistent calculation

          k = 0.0000 0.0000 0.0000 ( 10827 PWs)   bands (ev):

    -5.8332  -4.7694  -4.7646  -4.7531  -4.7290  -4.7218  -4.6318  -3.8238
    -3.7979  -3.7975  -3.7660  -3.7645  -3.7535  -3.7460  -3.7371  -3.7334
    -3.7146  -3.6678  -3.5850  -3.4440  -3.3864  -3.3848  -2.8956  -1.6443
    -1.6318  -1.6162  -1.6152  -1.6097  -1.5750  -1.4827  -1.4671  -1.4582
    -1.4243  -1.4068  -1.4033  -1.3978  -1.3762  -1.3313  -1.3177  -1.2635
    -0.9430  -0.8708  -0.8041  -0.7838  -0.2598   0.7271   0.7278   0.7374
     0.7468   0.7566   0.7595   0.7645   0.7722   0.8354   0.8667   0.8882
     1.7978   2.1689   2.1861   2.2059   2.2279   2.2357   2.2470   2.2478
     2.2683   2.2802   2.2866   2.2868   2.3001   2.3597   2.3627   2.3632
     2.3658   2.3880   2.3931   2.4004   2.4162   2.4258   2.5380   2.5881
     2.6100   2.7633   2.7758   2.8899   2.9182   2.9468   3.3015   3.3233
     3.3405   3.4704   3.4930   3.5376   3.9283   4.2854   4.2871   4.2924
     4.3050   4.3055   4.3158   4.3208   4.3612   4.3937   4.4489   4.4791
     4.5047   4.8418   4.8853   4.8972   4.8988   4.9045   4.9209   4.9251
     4.9383   4.9463   4.9643   5.0046   5.0066   5.0103   5.0456   5.0768
     5.1180   5.1263   5.8285   5.9137   5.9639   6.5610   6.7461   6.7813
     6.8695   6.8879   6.9098   6.9615   7.0508   7.1844   7.2762   7.3552
     7.3668   7.4085   7.4130   7.4533   7.7793   7.8629   7.8930   8.0547
     8.5196   8.6582   8.6609   8.6728   8.6854   8.7147   8.7212   8.7250
     8.7284   8.7357   8.7450   8.8193   8.9145   8.9286   8.9511   9.3216

     highest occupied, lowest unoccupied level (ev):     6.5610    6.7461

!    total energy              =    -498.38078830 Ry
     estimated scf accuracy    <       0.00000005 Ry

     convergence has been achieved in   6 iterations
  * IN ARTn_QE::          63
 Elements:Si 
     |> Configuration Files: * Start: initp.xsf | sad0001.xsf | min0001.xsf | min0002.xsf
     |> BLOCK FINALIZE..
     !> CLEANING ARTn | Fail: 0
 ARTn calculation converged, stopping
  * PLUGIN_EXT_FORCE::   1.000000000000000E-003   1.00000000000000     

     Forces acting on atoms (cartesian axes, Ry/au):

     atom    1 type  1   force =     0.00000000    0.00000000    0.00000000
     atom    2 type  1   force =     0.00000000    0.00000000    0.00000000
     atom    3 type  1   force =     0.00000000    0.00000000    0.00000000
     atom    4 type  1   force =     0.00000000    0.00000000    0.00000000
     atom    5 type  1   force =     0.00000000    0.00000000    0.00000000
     atom    6 type  1   force =     0.00000000    0.00000000    0.00000000
     atom    7 type  1   force =     0.00000000    0.00000000    0.00000000
     atom    8 type  1   force =     0.00000000    0.00000000    0.00000000
     atom    9 type  1   force =     0.00000000    0.00000000    0.00000000
     atom   10 type  1   force =     0.00000000    0.00000000    0.00000000
     atom   11 type  1   force =     0.00000000    0.00000000    0.00000000
     atom   12 type  1   force =     0.00000000    0.00000000    0.00000000
     atom   13 type  1   force =     0.00000000    0.00000000    0.00000000
     atom   14 type  1   force =     0.00000000    0.00000000    0.00000000
     atom   15 type  1   force =     0.00000000    0.00000000    0.00000000
     atom   16 type  1   force =     0.00000000    0.00000000    0.00000000
     atom   17 type  1   force =     0.00000000    0.00000000    0.00000000
     atom   18 type  1   force =     0.00000000    0.00000000    0.00000000
     atom   19 type  1   force =     0.00000000    0.00000000    0.00000000
     atom   20 type  1   force =     0.00000000    0.00000000    0.00000000
     atom   21 type  1   force =     0.00000000    0.00000000    0.00000000
     atom   22 type  1   force =     0.00000000    0.00000000    0.00000000
     atom   23 type  1   force =     0.00000000    0.00000000    0.00000000
     atom   24 type  1   force =     0.00000000    0.00000000    0.00000000
     atom   25 type  1   force =     0.00000000    0.00000000    0.00000000
     atom   26 type  1   force =     0.00000000    0.00000000    0.00000000
     atom   27 type  1   force =     0.00000000    0.00000000    0.00000000
     atom   28 type  1   force =     0.00000000    0.00000000    0.00000000
     atom   29 type  1   force =     0.00000000    0.00000000    0.00000000
     atom   30 type  1   force =     0.00000000    0.00000000    0.00000000
     atom   31 type  1   force =     0.00000000    0.00000000    0.00000000
     atom   32 type  1   force =     0.00000000    0.00000000    0.00000000
     atom   33 type  1   force =     0.00000000    0.00000000    0.00000000
     atom   34 type  1   force =     0.00000000    0.00000000    0.00000000
     atom   35 type  1   force =     0.00000000    0.00000000    0.00000000
     atom   36 type  1   force =     0.00000000    0.00000000    0.00000000
     atom   37 type  1   force =     0.00000000    0.00000000    0.00000000
     atom   38 type  1   force =     0.00000000    0.00000000    0.00000000
     atom   39 type  1   force =     0.00000000    0.00000000    0.00000000
     atom   40 type  1   force =     0.00000000    0.00000000    0.00000000
     atom   41 type  1   force =     0.00000000    0.00000000    0.00000000
     atom   42 type  1   force =     0.00000000    0.00000000    0.00000000
     atom   43 type  1   force =     0.00000000    0.00000000    0.00000000
     atom   44 type  1   force =     0.00000000    0.00000000    0.00000000
     atom   45 type  1   force =     0.00000000    0.00000000    0.00000000
     atom   46 type  1   force =     0.00000000    0.00000000    0.00000000
     atom   47 type  1   force =     0.00000000    0.00000000    0.00000000
     atom   48 type  1   force =     0.00000000    0.00000000    0.00000000
     atom   49 type  1   force =     0.00000000    0.00000000    0.00000000
     atom   50 type  1   force =     0.00000000    0.00000000    0.00000000
     atom   51 type  1   force =     0.00000000    0.00000000    0.00000000
     atom   52 type  1   force =     0.00000000    0.00000000    0.00000000
     atom   53 type  1   force =     0.00000000    0.00000000    0.00000000
     atom   54 type  1   force =     0.00000000    0.00000000    0.00000000
     atom   55 type  1   force =     0.00000000    0.00000000    0.00000000
     atom   56 type  1   force =     0.00000000    0.00000000    0.00000000
     atom   57 type  1   force =     0.00000000    0.00000000    0.00000000
     atom   58 type  1   force =     0.00000000    0.00000000    0.00000000
     atom   59 type  1   force =     0.00000000    0.00000000    0.00000000
     atom   60 type  1   force =     0.00000000    0.00000000    0.00000000
     atom   61 type  1   force =     0.00000000    0.00000000    0.00000000
     atom   62 type  1   force =     0.00000000    0.00000000    0.00000000
     atom   63 type  1   force =     0.00000000    0.00000000    0.00000000

     Total force =     0.000000     Total SCF correction =     0.000332

     FIRE: convergence achieved in 145 steps

     End of FIRE minimization

     Final energy =    -498.3807882968 Ry

Begin final coordinates
     new unit-cell volume =   8409.19159 a.u.^3 (  1246.11363 Ang^3 )
     density =      2.35788 g/cm^3

CELL_PARAMETERS (alat= 10.16766948)
   2.000000000   0.000000000   0.000000000
   0.000000000   2.000000000   0.000000000
   0.000000000   0.000000000   2.000000000

ATOMIC_POSITIONS (angstrom)
Si            2.6555175930        2.6555175930        0.0566731860
Si            2.8592173310        2.8592173310        5.3290564000
Si            2.6515838830        8.1165199970       -0.0384133760
Si            2.8719133670        7.9061137800        5.4476359040
Si            8.1165199970        2.6515838830       -0.0384133760
Si            7.9061137800        2.8719133670        5.4476359040
Si            8.1209167360        8.1209167360        0.0571427950
Si            7.9051495360        7.9051495360        5.3316733200
Si            0.0065392290        0.0065392290        0.0043360460
Si            0.0075994850        0.0075994850        5.3852978040
Si            0.0087800180        5.3917641390        0.0000183000
Si            0.0091042570        5.3877814200        5.3862366900
Si            5.3917641390        0.0087800180        0.0000183000
Si            5.3877814200        0.0091042570        5.3862366900
Si            5.3886077680        5.3886077680        0.0072744920
Si            2.6988337570       -0.0191154980        2.7425649670
Si            2.6971710920        0.0284533680        8.0315015460
Si            2.7280573720        5.4030883130        2.6683120660
Si            2.7324945100        5.3660450390        8.1045939260
Si            8.0775186900        0.0289358580        2.7494685780
Si            8.0791389540       -0.0179301480        8.0248564710
Si            8.0477702320        5.3676946130        2.6636545090
Si            8.0436642870        5.4030373480        8.1099501490
Si           -0.0191154980        2.6988337570        2.7425649670
Si            0.0284533680        2.6971710920        8.0315015460
Si            0.0289358580        8.0775186900        2.7494685780
Si           -0.0179301480        8.0791389540        8.0248564710
Si            5.4030883130        2.7280573720        2.6683120660
Si            5.3660450390        2.7324945100        8.1045939260
Si            5.3676946130        8.0477702320        2.6636545090
Si            5.4030373480        8.0436642870        8.1099501490
Si            4.0303957410        1.3262471660        1.3844761880
Si            4.0542708790        1.4011839140        6.7054452920
Si            4.0013840260        6.7690668240        1.2821876990
Si            4.3370936060        6.4385821180        6.7761358990
Si            9.4312678020        1.3386418140        1.3705811810
Si            9.3651196650        1.4118317250        6.7088742630
Si            9.4490887190        6.7471935070        1.3864991760
Si            9.3703538090        6.7142473080        6.7051938100
Si            1.3262471660        4.0303957410        1.3844761880
Si            1.4011839140        4.0542708790        6.7054452920
Si            1.3386418140        9.4312678020        1.3705811810
Si            1.4118317250        9.3651196650        6.7088742630
Si            6.7690668240        4.0013840260        1.2821876990
Si            6.4385821180        4.3370936060        6.7761358990
Si            6.7471935070        9.4490887190        1.3864991760
Si            6.7142473080        9.3703538090        6.7051938100
Si            4.3177886390        4.3177886390        3.9991974330
Si            4.0032123420        4.0032123420        9.4956910850
Si            4.0572276870        9.3715169560        4.0707139530
Si            4.0245300220        9.4433217150        9.3911550440
Si            9.3715169560        4.0572276870        4.0707139530
Si            9.4433217150        4.0245300220        9.3911550440
Si            9.3620049690        9.3620049690        4.0703359160
Si            9.4313772370        9.4313772370        9.4039123010
Si            1.4076001470        1.4076001470        4.0582412240
Si            1.3435056820        1.3435056820        9.4054387240
Si            1.4066831430        6.7199312180        4.0712403930
Si            1.3312015540        6.7492422760        9.3787153890
Si            6.7199312180        1.4066831430        4.0712403930
Si            6.7492422760        1.3312015540        9.3787153890
Si            6.4514401730        6.4514401730        3.9895062850
Si            6.7736870440        6.7736870440        9.4952327140
End final coordinates



     Writing all to output data dir ./pwscf.save/
 
     init_run     :      0.14s CPU      0.15s WALL (       1 calls)
     electrons    :    231.34s CPU    236.64s WALL (     146 calls)
     update_pot   :      0.85s CPU      0.93s WALL (     145 calls)
     forces       :      5.69s CPU      6.00s WALL (     146 calls)

     Called by init_run:
     wfcinit      :      0.11s CPU      0.12s WALL (       1 calls)
     potinit      :      0.00s CPU      0.00s WALL (       1 calls)
     hinit0       :      0.01s CPU      0.01s WALL (       1 calls)

     Called by electrons:
     c_bands      :    211.31s CPU    215.49s WALL (     978 calls)
     sum_band     :     15.24s CPU     15.89s WALL (     978 calls)
     v_of_rho     :      0.63s CPU      0.67s WALL (    1015 calls)
     mix_rho      :      3.77s CPU      3.93s WALL (     978 calls)

     Called by c_bands:
     init_us_2    :      2.48s CPU      2.72s WALL (    1957 calls)
     init_us_2:cp :      2.47s CPU      2.71s WALL (    1957 calls)
     cegterg      :    206.76s CPU    210.83s WALL (     978 calls)

     Called by *egterg:
     cdiaghg      :     74.64s CPU     74.71s WALL (    3109 calls)
     h_psi        :     79.92s CPU     82.91s WALL (    3364 calls)
     g_psi        :      0.52s CPU      0.52s WALL (    2385 calls)

     Called by h_psi:
     h_psi:calbec :     10.87s CPU     11.05s WALL (    3364 calls)
     vloc_psi     :     57.37s CPU     59.93s WALL (    3364 calls)
     add_vuspsi   :     10.47s CPU     10.57s WALL (    3364 calls)

     General routines
     calbec       :     13.23s CPU     13.54s WALL (    3948 calls)
     fft          :      0.68s CPU      0.73s WALL (    3445 calls)
     ffts         :      1.60s CPU      1.67s WALL (   13239 calls)
     fftw         :     60.50s CPU     63.08s WALL (  892450 calls)
 
     Parallel routines
 
     PWSCF        :   4m 7.53s CPU   4m14.74s WALL

 
   This run was terminated on:  15:57:54  14Nov2022            

=------------------------------------------------------------------------------=
   JOB DONE.
=------------------------------------------------------------------------------=
