
     Program PWSCF v.7.0 starts on 15Nov2022 at 12:29:35 

     This program is part of the open-source Quantum ESPRESSO suite
     for quantum simulation of materials; please cite
         "P. Giannozzi et al., J. Phys.:Condens. Matter 21 395502 (2009);
         "P. Giannozzi et al., J. Phys.:Condens. Matter 29 465901 (2017);
         "P. Giannozzi et al., J. Chem. Phys. 152 154105 (2020);
          URL http://www.quantum-espresso.org", 
     in publications or presentations arising from this work. More details at
     http://www.quantum-espresso.org/quote

     Parallel version (MPI), running on    16 processors

     MPI processes distributed on     1 nodes
     R & G space division:  proc/nbgrp/npool/nimage =      16
     117953 MiB available memory on the printing compute node when the environment starts
 
     Waiting for input...
     Reading input from standard input

     Current dimensions of program PWSCF are:
     Max number of different atomic species (ntypx) = 10
     Max number of k-points (npk) =  40000
     Max angular momentum in pseudopotentials (lmaxx) =  4

     File ./pwscf.update deleted, as requested

     File ./pwscf.fire deleted, as requested
     file C.pbe-rrkjus.UPF: wavefunction(s)  2S 2P renormalized

     Subspace diagonalization in iterative solution of the eigenvalue problem:
     a serial algorithm will be used

 
     Parallelization info
     --------------------
     sticks:   dense  smooth     PW     G-vecs:    dense   smooth      PW
     Min         110      44     12                 4646     1172     184
     Max         111      45     13                 4651     1175     187
     Sum        1773     713    207                74379    18779    2963
 
     Using Slab Decomposition
 


     bravais-lattice index     =            0
     lattice parameter (alat)  =      13.8840  a.u.
     unit-cell volume          =    1556.3208 (a.u.)^3
     number of atoms/cell      =           25
     number of atomic types    =            2
     number of electrons       =        99.00
     number of Kohn-Sham states=           60
     kinetic-energy cutoff     =      20.0000  Ry
     charge density cutoff     =     200.0000  Ry
     scf convergence threshold =      1.0E-07
     mixing beta               =       0.7000
     number of iterations used =            8  plain     mixing
     energy convergence thresh.=      1.0E-04
     force convergence thresh. =      1.0E-03
     Exchange-correlation= PBE
                           (   1   4   3   4   0   0   0)
     nstep                     =          250


     celldm(1)=  13.884000  celldm(2)=   0.000000  celldm(3)=   0.000000
     celldm(4)=   0.000000  celldm(5)=   0.000000  celldm(6)=   0.000000

     crystal axes: (cart. coord. in units of alat)
               a(1) = (   1.000000   0.000000   0.000000 )  
               a(2) = (  -0.333333   0.577350   0.000000 )  
               a(3) = (   0.000000   0.000000   1.007201 )  

     reciprocal axes: (cart. coord. in units 2 pi/alat)
               b(1) = (  1.000000  0.577350  0.000000 )  
               b(2) = (  0.000000  1.732052  0.000000 )  
               b(3) = (  0.000000  0.000000  0.992850 )  


     PseudoPot. # 1 for C  read from file:
     ./C.pbe-rrkjus.UPF
     MD5 check sum: 00fb224312de0c5b6853bd333518df6f
     Pseudo is Ultrasoft, Zval =  4.0
     Generated by new atomic code, or converted to UPF format
     Using radial grid of  627 points,  4 beta functions with: 
                l(1) =   0
                l(2) =   0
                l(3) =   1
                l(4) =   1
     Q(r) pseudized with 0 coefficients 


     PseudoPot. # 2 for Li read from file:
     ./Li.pbe-s-rrkjus_psl.0.2.1.UPF
     MD5 check sum: 85e69c2af498d015ba224604e87b64cc
     Pseudo is Ultrasoft, Zval =  3.0
     Generated using "atomic" code by A. Dal Corso  v.5.0.2 svn rev. 9415
     Using radial grid of 1017 points,  4 beta functions with: 
                l(1) =   0
                l(2) =   0
                l(3) =   1
                l(4) =   1
     Q(r) pseudized with 0 coefficients 


     atomic species   valence    mass     pseudopotential
        C              4.00    12.01070     C ( 1.00)
        Li             3.00     6.94100     Li( 1.00)

     No symmetry found



   Cartesian axes

     site n.     atom                  positions (alat units)
         1           C   tau(   1) = (   0.9995069   0.0011011  -0.0146777  )
         2           C   tau(   2) = (   0.9995386   0.0004813   0.5137488  )
         3           C   tau(   3) = (   0.8328056   0.2897702  -0.0140539  )
         4           C   tau(   4) = (   0.8328019   0.2891070   0.5129479  )
         5           C   tau(   5) = (   0.3337365   0.0011602  -0.0149146  )
         6           C   tau(   6) = (   0.3336991   0.0005643   0.5138054  )
         7           C   tau(   7) = (   0.1667671   0.2904660  -0.0148412  )
         8           C   tau(   8) = (   0.1667395   0.2898893   0.5137189  )
         9           C   tau(   9) = (   0.6666379   0.0015655  -0.0139780  )
        10           C   tau(  10) = (   0.6667145   0.0007618   0.5119850  )
        11           C   tau(  11) = (   0.5003202   0.2904570  -0.0136722  )
        12           C   tau(  12) = (   0.5003865   0.2896432   0.5120364  )
        13           C   tau(  13) = (  -0.0003006   0.1939817  -0.0148939  )
        14           C   tau(  14) = (  -0.0003201   0.1933522   0.5141912  )
        15           C   tau(  15) = (  -0.1666430   0.4820162  -0.0148347  )
        16           C   tau(  16) = (  -0.1666652   0.4813695   0.5140214  )
        17           C   tau(  17) = (   0.3339284   0.1940715  -0.0147946  )
        18           C   tau(  18) = (   0.3339211   0.1934471   0.5132703  )
        19           C   tau(  19) = (   0.1673235   0.4827548  -0.0141954  )
        20           C   tau(  20) = (   0.1673277   0.4821681   0.5123731  )
        21           C   tau(  21) = (   0.6666936   0.1939355  -0.0138989  )
        22           C   tau(  22) = (   0.6667900   0.1931346   0.5122375  )
        23           C   tau(  23) = (   0.4996440   0.4824201  -0.0135349  )
        24           C   tau(  24) = (   0.4997464   0.4816343   0.5121423  )
        25           Li  tau(  25) = (   0.1655091   0.0963278   0.2495671  )

     number of k points=     6  Marzari-Vanderbilt smearing, width (Ry)=  0.0100
                       cart. coord. in units 2pi/alat
        k(    1) = (   0.2500000   0.4330128   0.2482126), wk =   0.3333333
        k(    2) = (   0.2500000   0.4330128  -0.2482126), wk =   0.3333333
        k(    3) = (   0.2500000  -0.7216883   0.2482126), wk =   0.3333333
        k(    4) = (   0.2500000  -0.7216883  -0.2482126), wk =   0.3333333
        k(    5) = (   0.2500000  -0.1443378   0.2482126), wk =   0.3333333
        k(    6) = (   0.2500000  -0.1443378  -0.2482126), wk =   0.3333333

     Dense  grid:    74379 G-vectors     FFT dimensions: (  64,  45,  64)

     Smooth grid:    18779 G-vectors     FFT dimensions: (  40,  27,  40)

     Estimated max dynamical RAM per process >      12.95 MB

     Estimated total dynamical RAM >     207.13 MB

     Initial potential from superposition of free atoms

     starting charge      98.9941, renormalised to      99.0000
     Starting wfcs are   98 randomized atomic wfcs

     total cpu time spent up to now is        0.2 secs

     Self-consistent Calculation

     iteration #  1     ecut=    20.00 Ry     beta= 0.70
     Davidson diagonalization with overlap
     ethr =  1.00E-02,  avg # of iterations =  2.7

     total cpu time spent up to now is        0.4 secs

     total energy              =    -287.62220036 Ry
     estimated scf accuracy    <       2.43059775 Ry

     iteration #  2     ecut=    20.00 Ry     beta= 0.70
     Davidson diagonalization with overlap
     ethr =  2.46E-03,  avg # of iterations =  2.3

     total cpu time spent up to now is        0.6 secs

     total energy              =    -287.95431292 Ry
     estimated scf accuracy    <       0.04670991 Ry

     iteration #  3     ecut=    20.00 Ry     beta= 0.70
     Davidson diagonalization with overlap
     ethr =  4.72E-05,  avg # of iterations = 10.7

     total cpu time spent up to now is        1.0 secs

     total energy              =    -287.95555086 Ry
     estimated scf accuracy    <       0.02938032 Ry

     iteration #  4     ecut=    20.00 Ry     beta= 0.70
     Davidson diagonalization with overlap
     ethr =  2.97E-05,  avg # of iterations =  3.3

     total cpu time spent up to now is        1.2 secs

     total energy              =    -287.96339210 Ry
     estimated scf accuracy    <       0.00869837 Ry

     iteration #  5     ecut=    20.00 Ry     beta= 0.70
     Davidson diagonalization with overlap
     ethr =  8.79E-06,  avg # of iterations =  2.3

     total cpu time spent up to now is        1.4 secs

     total energy              =    -287.96484001 Ry
     estimated scf accuracy    <       0.00140143 Ry

     iteration #  6     ecut=    20.00 Ry     beta= 0.70
     Davidson diagonalization with overlap
     ethr =  1.42E-06,  avg # of iterations =  2.5

     total cpu time spent up to now is        1.6 secs

     total energy              =    -287.96509549 Ry
     estimated scf accuracy    <       0.00010100 Ry

     iteration #  7     ecut=    20.00 Ry     beta= 0.70
     Davidson diagonalization with overlap
     ethr =  1.02E-07,  avg # of iterations =  2.0

     total cpu time spent up to now is        1.7 secs

     total energy              =    -287.96511907 Ry
     estimated scf accuracy    <       0.00003482 Ry

     iteration #  8     ecut=    20.00 Ry     beta= 0.70
     Davidson diagonalization with overlap
     ethr =  3.52E-08,  avg # of iterations =  1.3

     total cpu time spent up to now is        1.9 secs

     total energy              =    -287.96512434 Ry
     estimated scf accuracy    <       0.00000103 Ry

     iteration #  9     ecut=    20.00 Ry     beta= 0.70
     Davidson diagonalization with overlap
     ethr =  1.04E-09,  avg # of iterations =  3.0

     total cpu time spent up to now is        2.1 secs

     total energy              =    -287.96512455 Ry
     estimated scf accuracy    <       0.00000011 Ry

     iteration # 10     ecut=    20.00 Ry     beta= 0.70
     Davidson diagonalization with overlap
     ethr =  1.14E-10,  avg # of iterations =  2.0

     total cpu time spent up to now is        2.2 secs

     End of self-consistent calculation

          k = 0.2500 0.4330 0.2482 (  2347 PWs)   bands (ev):

   -41.4934 -12.7313 -12.6332 -12.0504 -11.9534  -9.8033  -9.7183  -9.1613
    -9.0782  -8.2831  -8.2026  -7.4103  -7.3373  -6.1850  -6.1230  -5.5213
    -5.4594  -5.3076  -5.2549  -4.1896  -4.1438  -3.2491  -3.2093  -1.1562
    -0.4157  -0.3949  -0.3598  -0.3148  -0.0800  -0.0634   0.0798   0.1244
     0.2464   0.2584   0.4922   1.4607   1.4945   1.8055   1.8438   2.1807
     2.4981   2.5293   2.8402   2.9197   3.5406   3.6044   4.2581   4.7454
     5.3743   7.4836   8.0473   8.0638   8.7527   8.9251   9.6131   9.9507
    10.5431  10.8303  11.5286  13.5531

          k = 0.2500 0.4330-0.2482 (  2347 PWs)   bands (ev):

   -41.4934 -12.7313 -12.6332 -12.0504 -11.9533  -9.8033  -9.7183  -9.1613
    -9.0782  -8.2831  -8.2026  -7.4102  -7.3373  -6.1849  -6.1231  -5.5212
    -5.4595  -5.3076  -5.2548  -4.1898  -4.1436  -3.2490  -3.2093  -1.1562
    -0.4156  -0.3951  -0.3604  -0.3142  -0.0800  -0.0634   0.0798   0.1243
     0.2463   0.2585   0.4924   1.4610   1.4943   1.8052   1.8442   2.1807
     2.4983   2.5292   2.8401   2.9200   3.5406   3.6044   4.2580   4.7456
     5.3740   7.4834   8.0470   8.0644   8.7529   8.9248   9.6132   9.9507
    10.5430  10.8301  11.5289  13.5538

          k = 0.2500-0.7217 0.2482 (  2340 PWs)   bands (ev):

   -41.4898 -12.0708 -11.9772 -11.7325 -11.6376 -11.0695 -10.9770 -10.1085
   -10.0219  -8.8622  -8.7819  -7.4056  -7.3325  -5.5283  -5.4664  -4.0706
    -4.0266  -3.2482  -3.2082  -3.0185  -2.9825  -2.5201  -2.4900  -2.0220
    -1.9913  -1.0187  -0.9807  -0.9203  -0.8880  -0.3682   0.0116   0.0910
     0.1365   0.4264   0.5690   0.5845   0.8141   0.8312   1.4530   1.4731
     1.4822   1.4916   1.6061   1.9109   2.6639   3.2996   3.9936   4.7528
     5.3840   7.4694   8.0531   9.0456   9.5900  10.7086  11.2133  11.4168
    11.9404  12.2891  12.5776  12.8072

          k = 0.2500-0.7217-0.2482 (  2340 PWs)   bands (ev):

   -41.4898 -12.0708 -11.9772 -11.7325 -11.6377 -11.0695 -10.9771 -10.1086
   -10.0219  -8.8623  -8.7818  -7.4056  -7.3325  -5.5284  -5.4664  -4.0708
    -4.0265  -3.2479  -3.2085  -3.0185  -2.9826  -2.5203  -2.4898  -2.0221
    -1.9912  -1.0190  -0.9804  -0.9204  -0.8879  -0.3682   0.0116   0.0914
     0.1362   0.4264   0.5689   0.5846   0.8141   0.8311   1.4530   1.4730
     1.4822   1.4916   1.6063   1.9110   2.6639   3.2995   3.9937   4.7528
     5.3840   7.4693   8.0533   9.0459   9.5900  10.7091  11.2131  11.4163
    11.9412  12.2889  12.5780  12.8057

          k = 0.2500-0.1443 0.2482 (  2355 PWs)   bands (ev):

   -41.4987 -13.0581 -12.9576 -11.0758 -10.9842 -10.1167 -10.0308  -9.7937
    -9.7080  -8.2811  -8.2004  -7.4413  -7.3658  -6.4550  -6.3959  -6.1719
    -6.1089  -4.1943  -4.1480  -3.0140  -2.9777  -2.0317  -2.0004  -1.7855
    -1.7474  -1.5440  -1.0148  -0.9801  -0.7023  -0.4149  -0.3944  -0.0808
    -0.0609   0.5736   0.5898   0.7982   1.5802   1.8807   2.2268   2.6335
     2.8719   2.9029   2.9600   3.1758   3.1795   3.5989   4.2552   4.3316
     4.9580   7.5833   8.0558   8.2552   8.7679   9.9249  10.4620  10.5360
    10.7300  11.2350  12.2583  12.4507

          k = 0.2500-0.1443-0.2482 (  2355 PWs)   bands (ev):

   -41.4987 -13.0581 -12.9576 -11.0759 -10.9842 -10.1166 -10.0308  -9.7936
    -9.7081  -8.2811  -8.2004  -7.4412  -7.3658  -6.4550  -6.3959  -6.1718
    -6.1090  -4.1942  -4.1481  -3.0139  -2.9778  -2.0316  -2.0005  -1.7853
    -1.7476  -1.5439  -1.0150  -0.9799  -0.7025  -0.4149  -0.3944  -0.0811
    -0.0606   0.5734   0.5901   0.7982   1.5802   1.8805   2.2270   2.6336
     2.8715   2.9032   2.9598   3.1758   3.1795   3.5990   4.2550   4.3318
     4.9580   7.5829   8.0558   8.2559   8.7678   9.9251  10.4596  10.5380
    10.7297  11.2355  12.2578  12.4492

     the Fermi energy is     7.5257 ev

!    total energy              =    -287.96512457 Ry
     estimated scf accuracy    <          8.1E-09 Ry
     smearing contrib. (-TS)   =      -0.00245640 Ry
     internal energy E=F+TS    =    -287.96266817 Ry

     convergence has been achieved in  10 iterations
  * IN ARTn_QE::          25
 Elements:C  Li 
     |> Initialize_ARTn()
     |> NPERP_LIMITATION:: Actual nperp 4
     |> NPERP_LIMITATION::List: 4 8 12 16 -1
 --------------------------------------------------
  * ARTn::UNITS::E2au::      1.0000     au2E      1.0000    
  * ARTn::UNITS::L2au::      1.0000     au2L      1.0000    
  * ARTn::UNITS::T2au::      1.0000     au2T      1.0000    
  * ARTn::UNITS::F2au::      1.0000     au2F      1.0000    
  * ARTn::UNITS::H2au::      1.0000     au2H      1.0000    
  * ARTn::UNITS::Mass::      911.44    
 --------------------------------------------------

     Forces acting on atoms (cartesian axes, Ry/au):

     atom    1 type  1   force =     0.00000000    0.00000000    0.00000000
     atom    2 type  1   force =     0.00000000    0.00000000    0.00000000
     atom    3 type  1   force =     0.00000000    0.00000000    0.00000000
     atom    4 type  1   force =     0.00000000    0.00000000    0.00000000
     atom    5 type  1   force =     0.00000000    0.00000000    0.00000000
     atom    6 type  1   force =     0.00000000    0.00000000    0.00000000
     atom    7 type  1   force =     0.00000000    0.00000000    0.00000000
     atom    8 type  1   force =     0.00000000    0.00000000    0.00000000
     atom    9 type  1   force =     0.00000000    0.00000000    0.00000000
     atom   10 type  1   force =     0.00000000    0.00000000    0.00000000
     atom   11 type  1   force =     0.00000000    0.00000000    0.00000000
     atom   12 type  1   force =     0.00000000    0.00000000    0.00000000
     atom   13 type  1   force =     0.00000000    0.00000000    0.00000000
     atom   14 type  1   force =     0.00000000    0.00000000    0.00000000
     atom   15 type  1   force =     0.00000000    0.00000000    0.00000000
     atom   16 type  1   force =     0.00000000    0.00000000    0.00000000
     atom   17 type  1   force =     0.00000000    0.00000000    0.00000000
     atom   18 type  1   force =     0.00000000    0.00000000    0.00000000
     atom   19 type  1   force =     0.00000000    0.00000000    0.00000000
     atom   20 type  1   force =     0.00000000    0.00000000    0.00000000
     atom   21 type  1   force =     0.00000000    0.00000000    0.00000000
     atom   22 type  1   force =     0.00000000    0.00000000    0.00000000
     atom   23 type  1   force =     0.00000000    0.00000000    0.00000000
     atom   24 type  1   force =     0.00000000    0.00000000    0.00000000
     atom   25 type  2   force =     0.91144424    0.00000000    0.00000000

     Total force =     0.911444     Total SCF correction =     0.000191

     Entering FIRE :       iteration =     1

     FIRE Parameters: P = 0.00000000, dt = 20.00, alpha = 0.000 nsteppos =   1 at step  1


ATOMIC_POSITIONS (angstrom)
C             7.3434736002        0.0080897121       -0.1078388044
C             7.3437064750        0.0035357964        3.7745619321
C             6.1187029261        2.1289696558       -0.1032551139
C             6.1186754869        2.1240970904        3.7686774468
C             2.4519944605        0.0085243656       -0.1095790393
C             2.4517197477        0.0041460631        3.7749777827
C             1.2252540856        2.1340813612       -0.1090395021
C             1.2250510219        2.1298447320        3.7743422801
C             4.8978530321        0.0115015793       -0.1026979254
C             4.8984153569        0.0055969232        3.7616032109
C             3.6759006945        2.1340154131       -0.1004507324
C             3.6763875768        2.1280367666        3.7619811350
C            -0.0022082960        1.4252023073       -0.1094267476
C            -0.0023516109        1.4205770351        3.7778119536
C            -1.2243422786        3.5414195261       -0.1089916882
C            -1.2245052922        3.5366684259        3.7765643960
C             2.4534043050        1.4258621472       -0.1086973512
C             2.4533501931        1.4212745500        3.7710460299
C             1.2293415633        3.5468460692       -0.1042953284
C             1.2293725275        3.5425352644        3.7644543272
C             4.8982619080        1.4248628914       -0.1021164497
C             4.8989704787        1.4189785347        3.7634579787
C             3.6709326864        3.5443869904       -0.0994418659
C             3.6716851132        3.5386134123        3.7627585587
Li            1.4276822027        0.7077294975        1.8335935169



     Writing config-only to output data dir ./pwscf.save/
     NEW-OLD atomic charge density approx. for the potential

     total cpu time spent up to now is        2.4 secs

     Self-consistent Calculation

     iteration #  1     ecut=    20.00 Ry     beta= 0.70
     Davidson diagonalization with overlap
     ethr =  1.00E-06,  avg # of iterations =  9.7

     total cpu time spent up to now is        2.8 secs

     total energy              =    -287.96193425 Ry
     estimated scf accuracy    <       0.00726505 Ry

     iteration #  2     ecut=    20.00 Ry     beta= 0.70
     Davidson diagonalization with overlap
     ethr =  7.34E-06,  avg # of iterations =  2.0

     total cpu time spent up to now is        2.9 secs

     total energy              =    -287.96174079 Ry
     estimated scf accuracy    <       0.00276291 Ry

     iteration #  3     ecut=    20.00 Ry     beta= 0.70
     Davidson diagonalization with overlap
     ethr =  2.79E-06,  avg # of iterations =  2.3

     total cpu time spent up to now is        3.1 secs

     total energy              =    -287.96244326 Ry
     estimated scf accuracy    <       0.00189767 Ry

     iteration #  4     ecut=    20.00 Ry     beta= 0.70
     Davidson diagonalization with overlap
     ethr =  1.92E-06,  avg # of iterations =  2.3

     total cpu time spent up to now is        3.3 secs

     total energy              =    -287.96277773 Ry
     estimated scf accuracy    <       0.00017127 Ry

     iteration #  5     ecut=    20.00 Ry     beta= 0.70
     Davidson diagonalization with overlap
     ethr =  1.73E-07,  avg # of iterations =  2.0

     total cpu time spent up to now is        3.5 secs

     total energy              =    -287.96281315 Ry
     estimated scf accuracy    <       0.00000814 Ry

     iteration #  6     ecut=    20.00 Ry     beta= 0.70
     Davidson diagonalization with overlap
     ethr =  8.22E-09,  avg # of iterations =  2.3

     total cpu time spent up to now is        3.6 secs

     total energy              =    -287.96281433 Ry
     estimated scf accuracy    <       0.00000807 Ry

     iteration #  7     ecut=    20.00 Ry     beta= 0.70
     Davidson diagonalization with overlap
     ethr =  8.15E-09,  avg # of iterations =  1.0

     total cpu time spent up to now is        3.8 secs

     total energy              =    -287.96281574 Ry
     estimated scf accuracy    <       0.00000111 Ry

     iteration #  8     ecut=    20.00 Ry     beta= 0.70
     Davidson diagonalization with overlap
     ethr =  1.12E-09,  avg # of iterations =  1.0

     total cpu time spent up to now is        3.9 secs

     End of self-consistent calculation

          k = 0.2500 0.4330 0.2482 (  2347 PWs)   bands (ev):

   -41.4872 -12.7308 -12.6328 -12.0500 -11.9531  -9.8028  -9.7179  -9.1609
    -9.0781  -8.2827  -8.2025  -7.4096  -7.3368  -6.1843  -6.1224  -5.5214
    -5.4598  -5.3070  -5.2544  -4.1894  -4.1437  -3.2479  -3.2081  -1.1554
    -0.4154  -0.3949  -0.3601  -0.3142  -0.0793  -0.0623   0.0804   0.1249
     0.2468   0.2587   0.4920   1.4605   1.4943   1.8056   1.8438   2.1820
     2.4990   2.5300   2.8435   2.9190   3.5413   3.6070   4.2575   4.7450
     5.3736   7.4842   8.0317   8.0706   8.7517   8.9161   9.6100   9.9514
    10.5414  10.8329  11.5271  13.5546

          k = 0.2500 0.4330-0.2482 (  2347 PWs)   bands (ev):

   -41.4872 -12.7307 -12.6328 -12.0500 -11.9531  -9.8028  -9.7179  -9.1609
    -9.0781  -8.2827  -8.2026  -7.4096  -7.3368  -6.1842  -6.1224  -5.5213
    -5.4600  -5.3071  -5.2543  -4.1896  -4.1435  -3.2479  -3.2082  -1.1555
    -0.4152  -0.3952  -0.3608  -0.3135  -0.0792  -0.0624   0.0804   0.1248
     0.2468   0.2588   0.4921   1.4608   1.4941   1.8052   1.8441   2.1819
     2.4991   2.5298   2.8434   2.9193   3.5411   3.6070   4.2575   4.7453
     5.3732   7.4840   8.0316   8.0710   8.7520   8.9159   9.6100   9.9515
    10.5412  10.8323  11.5279  13.5556

          k = 0.2500-0.7217 0.2482 (  2340 PWs)   bands (ev):

   -41.4835 -12.0702 -11.9768 -11.7320 -11.6373 -11.0692 -10.9768 -10.1082
   -10.0217  -8.8617  -8.7815  -7.4052  -7.3325  -5.5275  -5.4656  -4.0706
    -4.0271  -3.2477  -3.2077  -3.0177  -2.9817  -2.5189  -2.4888  -2.0223
    -1.9917  -1.0186  -0.9808  -0.9196  -0.8873  -0.3676   0.0119   0.0917
     0.1364   0.4245   0.5700   0.5856   0.8145   0.8314   1.4534   1.4738
     1.4808   1.4941   1.6062   1.9129   2.6636   3.3010   3.9934   4.7558
     5.3829   7.4678   8.0523   9.0456   9.5873  10.7039  11.2114  11.4172
    11.9355  12.2864  12.5798  12.8002

          k = 0.2500-0.7217-0.2482 (  2340 PWs)   bands (ev):

   -41.4835 -12.0702 -11.9768 -11.7320 -11.6374 -11.0691 -10.9768 -10.1082
   -10.0217  -8.8617  -8.7814  -7.4052  -7.3325  -5.5276  -5.4655  -4.0707
    -4.0269  -3.2474  -3.2080  -3.0177  -2.9818  -2.5191  -2.4886  -2.0224
    -1.9915  -1.0190  -0.9805  -0.9196  -0.8872  -0.3677   0.0119   0.0921
     0.1360   0.4246   0.5699   0.5857   0.8147   0.8312   1.4534   1.4738
     1.4807   1.4940   1.6063   1.9130   2.6635   3.3009   3.9935   4.7558
     5.3829   7.4676   8.0526   9.0459   9.5870  10.7045  11.2096  11.4183
    11.9365  12.2863  12.5795  12.7991

          k = 0.2500-0.1443 0.2482 (  2355 PWs)   bands (ev):

   -41.4923 -13.0576 -12.9572 -11.0754 -10.9840 -10.1163 -10.0306  -9.7930
    -9.7076  -8.2806  -8.1999  -7.4411  -7.3663  -6.4537  -6.3944  -6.1722
    -6.1094  -4.1936  -4.1475  -3.0135  -2.9775  -2.0315  -2.0004  -1.7850
    -1.7470  -1.5433  -1.0143  -0.9795  -0.7033  -0.4140  -0.3937  -0.0805
    -0.0606   0.5742   0.5904   0.7996   1.5791   1.8825   2.2293   2.6316
     2.8724   2.9038   2.9610   3.1759   3.1796   3.5986   4.2551   4.3354
     4.9568   7.5772   8.0561   8.2544   8.7651   9.9175  10.4598  10.5364
    10.7278  11.2329  12.2259  12.4672

          k = 0.2500-0.1443-0.2482 (  2355 PWs)   bands (ev):

   -41.4923 -13.0576 -12.9572 -11.0755 -10.9839 -10.1163 -10.0307  -9.7930
    -9.7076  -8.2806  -8.1999  -7.4411  -7.3664  -6.4538  -6.3943  -6.1720
    -6.1095  -4.1936  -4.1475  -3.0134  -2.9776  -2.0314  -2.0005  -1.7848
    -1.7471  -1.5432  -1.0145  -0.9793  -0.7035  -0.4140  -0.3937  -0.0807
    -0.0603   0.5739   0.5906   0.7996   1.5792   1.8823   2.2294   2.6316
     2.8720   2.9042   2.9608   3.1760   3.1795   3.5986   4.2547   4.3357
     4.9567   7.5769   8.0560   8.2550   8.7650   9.9178  10.4604  10.5349
    10.7276  11.2333  12.2253  12.4686

     the Fermi energy is     7.5240 ev

!    total energy              =    -287.96281591 Ry
     estimated scf accuracy    <       0.00000002 Ry
     smearing contrib. (-TS)   =      -0.00251981 Ry
     internal energy E=F+TS    =    -287.96029610 Ry

     convergence has been achieved in   8 iterations
  * IN ARTn_QE::          25
 Elements:C  Li 

     Forces acting on atoms (cartesian axes, Ry/au):

     atom    1 type  1   force =     0.00125411    0.00104593    0.00201076
     atom    2 type  1   force =     0.00084367    0.00043151   -0.00157296
     atom    3 type  1   force =     0.00138224   -0.00064314    0.00048975
     atom    4 type  1   force =     0.00149327   -0.00064115   -0.00018622
     atom    5 type  1   force =     0.00107256   -0.00164365   -0.00373930
     atom    6 type  1   force =     0.00136517   -0.00220357    0.00312157
     atom    7 type  1   force =    -0.00167058   -0.00022294    0.00011661
     atom    8 type  1   force =    -0.00152292   -0.00072686   -0.00039897
     atom    9 type  1   force =    -0.00045361   -0.00062001    0.00019809
     atom   10 type  1   force =    -0.00010595    0.00019386    0.00028054
     atom   11 type  1   force =     0.00166970   -0.00081468   -0.00029816
     atom   12 type  1   force =     0.00202061    0.00006467   -0.00014206
     atom   13 type  1   force =     0.00030252   -0.00096913    0.00100494
     atom   14 type  1   force =     0.00080610   -0.00071165   -0.00159738
     atom   15 type  1   force =    -0.00204101    0.00057511    0.00013130
     atom   16 type  1   force =    -0.00148058    0.00060825   -0.00029252
     atom   17 type  1   force =     0.00139622    0.00167067   -0.00227055
     atom   18 type  1   force =     0.00112524    0.00162896    0.00332558
     atom   19 type  1   force =     0.00119595    0.00062250    0.00087314
     atom   20 type  1   force =     0.00067167   -0.00007613    0.00008107
     atom   21 type  1   force =    -0.00034199   -0.00017344   -0.00003738
     atom   22 type  1   force =    -0.00092336    0.00027541   -0.00017396
     atom   23 type  1   force =     0.00203580    0.00078570   -0.00092374
     atom   24 type  1   force =     0.00170116    0.00097207   -0.00005405
     atom   25 type  2   force =    -0.00000000    0.00057169    0.00005392

     Total force =     0.010752     Total SCF correction =     0.000257

     Entering FIRE :       iteration =     2

     FIRE Parameters: P = 0.00000000, dt = 22.00, alpha = 0.198 nsteppos =   6 at step  2


ATOMIC_POSITIONS (angstrom)
C             7.3438260119        0.0083836266       -0.1072737680
C             7.3439435508        0.0036570539        3.7741199213
C             6.1190913437        2.1287889306       -0.1031174907
C             6.1190951047        2.1239169239        3.7686251185
C             2.4522958556        0.0080624886       -0.1106298075
C             2.4521033686        0.0035268453        3.7758549630
C             1.2247846425        2.1340187150       -0.1090067336
C             1.2246230707        2.1296404803        3.7742301659
C             4.8977255657        0.0113273523       -0.1026422606
C             4.8983855856        0.0056513982        3.7616820443
C             3.6763698924        2.1337864834       -0.1005345168
C             3.6769553806        2.1280549381        3.7619412143
C            -0.0021232871        1.4249299762       -0.1091443535
C            -0.0021250909        1.4203770561        3.7773630785
C            -1.2249158144        3.5415811361       -0.1089547934
C            -1.2249213454        3.5368393471        3.7764821951
C             2.4537966510        1.4263316157       -0.1093353917
C             2.4536663922        1.4217322994        3.7719805407
C             1.2296776334        3.5470209951       -0.1040499716
C             1.2295612706        3.5425138713        3.7644771082
C             4.8981658060        1.4248141550       -0.1021269530
C             4.8987110077        1.4190559264        3.7634090957
C             3.6715047601        3.5446077778       -0.0997014431
C             3.6721631508        3.5388865715        3.7627433697
Li            1.4276822027        0.7078901465        1.8336086684



     Writing config-only to output data dir ./pwscf.save/
     NEW-OLD atomic charge density approx. for the potential

     total cpu time spent up to now is        4.0 secs

     Self-consistent Calculation

     iteration #  1     ecut=    20.00 Ry     beta= 0.70
     Davidson diagonalization with overlap
     ethr =  1.00E-06,  avg # of iterations =  2.0

     Threshold (ethr) on eigenvalues was too large:
     Diagonalizing with lowered threshold

     Davidson diagonalization with overlap
     ethr =  5.34E-09,  avg # of iterations =  2.7

     total cpu time spent up to now is        4.4 secs

     total energy              =    -287.96286064 Ry
     estimated scf accuracy    <       0.00000692 Ry

     iteration #  2     ecut=    20.00 Ry     beta= 0.70
     Davidson diagonalization with overlap
     ethr =  6.99E-09,  avg # of iterations =  2.3

     total cpu time spent up to now is        4.6 secs

     total energy              =    -287.96286154 Ry
     estimated scf accuracy    <       0.00000470 Ry

     iteration #  3     ecut=    20.00 Ry     beta= 0.70
     Davidson diagonalization with overlap
     ethr =  4.75E-09,  avg # of iterations =  2.0

     total cpu time spent up to now is        4.7 secs

     total energy              =    -287.96286229 Ry
     estimated scf accuracy    <       0.00000232 Ry

     iteration #  4     ecut=    20.00 Ry     beta= 0.70
     Davidson diagonalization with overlap
     ethr =  2.35E-09,  avg # of iterations =  2.0

     total cpu time spent up to now is        4.9 secs

     total energy              =    -287.96286270 Ry
     estimated scf accuracy    <       0.00000081 Ry

     iteration #  5     ecut=    20.00 Ry     beta= 0.70
     Davidson diagonalization with overlap
     ethr =  8.22E-10,  avg # of iterations =  2.0

     total cpu time spent up to now is        5.0 secs

     total energy              =    -287.96286283 Ry
     estimated scf accuracy    <       0.00000011 Ry

     iteration #  6     ecut=    20.00 Ry     beta= 0.70
     Davidson diagonalization with overlap
     ethr =  1.10E-10,  avg # of iterations =  2.0

     total cpu time spent up to now is        5.2 secs

     End of self-consistent calculation

          k = 0.2500 0.4330 0.2482 (  2347 PWs)   bands (ev):

   -41.4871 -12.7306 -12.6325 -12.0500 -11.9531  -9.8025  -9.7177  -9.1610
    -9.0781  -8.2825  -8.2023  -7.4098  -7.3369  -6.1845  -6.1226  -5.5202
    -5.4586  -5.3078  -5.2551  -4.1882  -4.1425  -3.2490  -3.2092  -1.1554
    -0.4149  -0.3944  -0.3600  -0.3140  -0.0809  -0.0640   0.0790   0.1235
     0.2481   0.2599   0.4921   1.4625   1.4963   1.8078   1.8460   2.1815
     2.4966   2.5276   2.8440   2.9186   3.5419   3.6073   4.2580   4.7441
     5.3726   7.4856   8.0320   8.0716   8.7512   8.9148   9.6085   9.9530
    10.5430  10.8327  11.5269  13.5540

          k = 0.2500 0.4330-0.2482 (  2347 PWs)   bands (ev):

   -41.4871 -12.7306 -12.6326 -12.0500 -11.9531  -9.8026  -9.7177  -9.1610
    -9.0781  -8.2825  -8.2024  -7.4098  -7.3370  -6.1845  -6.1227  -5.5200
    -5.4587  -5.3079  -5.2551  -4.1884  -4.1423  -3.2489  -3.2092  -1.1554
    -0.4147  -0.3947  -0.3607  -0.3133  -0.0808  -0.0641   0.0790   0.1234
     0.2481   0.2600   0.4922   1.4628   1.4961   1.8075   1.8463   2.1815
     2.4967   2.5275   2.8439   2.9189   3.5418   3.6074   4.2579   4.7443
     5.3723   7.4854   8.0320   8.0719   8.7515   8.9146   9.6086   9.9529
    10.5429  10.8322  11.5276  13.5549

          k = 0.2500-0.7217 0.2482 (  2340 PWs)   bands (ev):

   -41.4834 -12.0699 -11.9765 -11.7320 -11.6373 -11.0691 -10.9766 -10.1083
   -10.0218  -8.8616  -8.7813  -7.4051  -7.3324  -5.5282  -5.4663  -4.0693
    -4.0258  -3.2468  -3.2069  -3.0192  -2.9832  -2.5202  -2.4901  -2.0205
    -1.9899  -1.0166  -0.9788  -0.9209  -0.8886  -0.3676   0.0123   0.0931
     0.1381   0.4249   0.5679   0.5836   0.8142   0.8315   1.4522   1.4750
     1.4823   1.4923   1.6059   1.9133   2.6640   3.3006   3.9930   4.7567
     5.3838   7.4666   8.0511   9.0469   9.5886  10.7029  11.2099  11.4167
    11.9353  12.2876  12.5794  12.8018

          k = 0.2500-0.7217-0.2482 (  2340 PWs)   bands (ev):

   -41.4834 -12.0700 -11.9765 -11.7320 -11.6373 -11.0690 -10.9767 -10.1083
   -10.0218  -8.8616  -8.7813  -7.4051  -7.3324  -5.5282  -5.4662  -4.0694
    -4.0256  -3.2465  -3.2072  -3.0192  -2.9832  -2.5204  -2.4899  -2.0206
    -1.9898  -1.0169  -0.9785  -0.9210  -0.8885  -0.3676   0.0123   0.0935
     0.1377   0.4250   0.5678   0.5837   0.8143   0.8313   1.4522   1.4749
     1.4823   1.4922   1.6060   1.9133   2.6639   3.3005   3.9931   4.7567
     5.3838   7.4664   8.0514   9.0472   9.5883  10.7035  11.2083  11.4176
    11.9362  12.2875  12.5794  12.8006

          k = 0.2500-0.1443 0.2482 (  2355 PWs)   bands (ev):

   -41.4922 -13.0575 -12.9571 -11.0754 -10.9839 -10.1160 -10.0303  -9.7932
    -9.7078  -8.2807  -8.2000  -7.4403  -7.3655  -6.4551  -6.3958  -6.1709
    -6.1081  -4.1940  -4.1478  -3.0140  -2.9779  -2.0313  -2.0001  -1.7840
    -1.7460  -1.5433  -1.0137  -0.9789  -0.7031  -0.4155  -0.3952  -0.0796
    -0.0598   0.5742   0.5904   0.7995   1.5791   1.8826   2.2295   2.6322
     2.8698   2.9013   2.9609   3.1788   3.1820   3.5972   4.2536   4.3368
     4.9581   7.5754   8.0585   8.2525   8.7680   9.9167  10.4597  10.5355
    10.7281  11.2329  12.2268  12.4666

          k = 0.2500-0.1443-0.2482 (  2355 PWs)   bands (ev):

   -41.4921 -13.0575 -12.9571 -11.0754 -10.9838 -10.1160 -10.0303  -9.7931
    -9.7079  -8.2807  -8.2000  -7.4403  -7.3656  -6.4552  -6.3957  -6.1707
    -6.1082  -4.1939  -4.1479  -3.0139  -2.9780  -2.0312  -2.0003  -1.7838
    -1.7462  -1.5432  -1.0139  -0.9787  -0.7033  -0.4155  -0.3952  -0.0799
    -0.0595   0.5740   0.5907   0.7995   1.5793   1.8825   2.2296   2.6322
     2.8695   2.9016   2.9608   3.1788   3.1820   3.5973   4.2535   4.3367
     4.9581   7.5750   8.0585   8.2531   8.7679   9.9169  10.4601  10.5342
    10.7280  11.2333  12.2263  12.4678

     the Fermi energy is     7.5236 ev

!    total energy              =    -287.96286285 Ry
     estimated scf accuracy    <          2.1E-09 Ry
     smearing contrib. (-TS)   =      -0.00253787 Ry
     internal energy E=F+TS    =    -287.96032498 Ry

     convergence has been achieved in   6 iterations
  * IN ARTn_QE::          25
 Elements:C  Li 

     Forces acting on atoms (cartesian axes, Ry/au):

     atom    1 type  1   force =     0.00031537    0.00018944    0.00168215
     atom    2 type  1   force =     0.00037693    0.00008507   -0.00146457
     atom    3 type  1   force =     0.00008207   -0.00051817    0.00049028
     atom    4 type  1   force =     0.00027026   -0.00047424   -0.00032381
     atom    5 type  1   force =     0.00027444   -0.00011163   -0.00319004
     atom    6 type  1   force =     0.00048201   -0.00027631    0.00283197
     atom    7 type  1   force =     0.00002994   -0.00025891    0.00012423
     atom    8 type  1   force =     0.00018123   -0.00058003   -0.00028249
     atom    9 type  1   force =     0.00082549   -0.00051152    0.00015218
     atom   10 type  1   force =     0.00046131   -0.00019286    0.00026085
     atom   11 type  1   force =     0.00113108    0.00028353   -0.00044221
     atom   12 type  1   force =     0.00082725    0.00065973    0.00007293
     atom   13 type  1   force =     0.00031297    0.00021856    0.00096960
     atom   14 type  1   force =     0.00033953   -0.00006435   -0.00147029
     atom   15 type  1   force =     0.00017363    0.00000996    0.00003569
     atom   16 type  1   force =     0.00024349   -0.00013618   -0.00017796
     atom   17 type  1   force =     0.00040868    0.00034424   -0.00213925
     atom   18 type  1   force =     0.00067654    0.00023311    0.00299911
     atom   19 type  1   force =     0.00025733   -0.00020042    0.00053750
     atom   20 type  1   force =     0.00045183   -0.00046333    0.00023459
     atom   21 type  1   force =     0.00076138   -0.00036479    0.00001729
     atom   22 type  1   force =     0.00064862    0.00010969   -0.00016782
     atom   23 type  1   force =     0.00112103    0.00053593   -0.00060745
     atom   24 type  1   force =     0.00092416    0.00091683   -0.00019215
     atom   25 type  2   force =     0.00000000    0.00056666    0.00004966

     Total force =     0.007291     Total SCF correction =     0.000102

     Entering FIRE :       iteration =     3

     FIRE Parameters: P = 0.00000011, dt = 24.20, alpha = 0.196 nsteppos =   7 at step  3


ATOMIC_POSITIONS (angstrom)
C             7.3442702735        0.0087232074       -0.1060668087
C             7.3443116938        0.0038000600        3.7731132439
C             6.1194693586        2.1284112375       -0.1027896425
C             6.1195798356        2.1235581948        3.7684426939
C             2.4526777891        0.0076070799       -0.1129003242
C             2.4526452948        0.0028630472        3.7778214154
C             1.2243820652        2.1338544556       -0.1089255222
C             1.2243207972        2.1292159732        3.7740122430
C             4.8979599113        0.0109582038       -0.1025290493
C             4.8985532123        0.0056184856        3.7618614382
C             3.6772603999        2.1337032319       -0.1007945406
C             3.6778053472        2.1283483898        3.7619365731
C            -0.0019165190        1.4247810263       -0.1084869456
C            -0.0017820077        1.4201731415        3.7763479233
C            -1.2253500339        3.5417282468       -0.1089071597
C            -1.2251869188        3.5369332516        3.7763346746
C             2.4543154611        1.4268915386       -0.1107991013
C             2.4542304792        1.4222351327        3.7740679680
C             1.2300830408        3.5470914316       -0.1036069913
C             1.2299181605        3.5423001466        3.7645958893
C             4.8984009350        1.4246176784       -0.1021289719
C             4.8987542493        1.4191704869        3.7632953074
C             3.6724820236        3.5450283685       -0.1001864064
C             3.6729744766        3.5395136239        3.7626491478
Li            1.4276822027        0.7082704703        1.8336429459



     Writing config-only to output data dir ./pwscf.save/
     NEW-OLD atomic charge density approx. for the potential

     total cpu time spent up to now is        5.3 secs

     Self-consistent Calculation

     iteration #  1     ecut=    20.00 Ry     beta= 0.70
     Davidson diagonalization with overlap
     ethr =  1.00E-06,  avg # of iterations =  2.0

     Threshold (ethr) on eigenvalues was too large:
     Diagonalizing with lowered threshold

     Davidson diagonalization with overlap
     ethr =  1.36E-08,  avg # of iterations =  2.7

     total cpu time spent up to now is        5.7 secs

     total energy              =    -287.96290894 Ry
     estimated scf accuracy    <       0.00001603 Ry

     iteration #  2     ecut=    20.00 Ry     beta= 0.70
     Davidson diagonalization with overlap
     ethr =  1.62E-08,  avg # of iterations =  2.3

     total cpu time spent up to now is        5.9 secs

     total energy              =    -287.96291113 Ry
     estimated scf accuracy    <       0.00000836 Ry

     iteration #  3     ecut=    20.00 Ry     beta= 0.70
     Davidson diagonalization with overlap
     ethr =  8.45E-09,  avg # of iterations =  2.3

     total cpu time spent up to now is        6.0 secs

     total energy              =    -287.96291313 Ry
     estimated scf accuracy    <       0.00000203 Ry

     iteration #  4     ecut=    20.00 Ry     beta= 0.70
     Davidson diagonalization with overlap
     ethr =  2.05E-09,  avg # of iterations =  2.3

     total cpu time spent up to now is        6.2 secs

     total energy              =    -287.96291349 Ry
     estimated scf accuracy    <       0.00000053 Ry

     iteration #  5     ecut=    20.00 Ry     beta= 0.70
     Davidson diagonalization with overlap
     ethr =  5.36E-10,  avg # of iterations =  2.0

     total cpu time spent up to now is        6.4 secs

     total energy              =    -287.96291356 Ry
     estimated scf accuracy    <       0.00000032 Ry

     iteration #  6     ecut=    20.00 Ry     beta= 0.70
     Davidson diagonalization with overlap
     ethr =  3.22E-10,  avg # of iterations =  1.3

     total cpu time spent up to now is        6.5 secs

     End of self-consistent calculation

          k = 0.2500 0.4330 0.2482 (  2347 PWs)   bands (ev):

   -41.4882 -12.7303 -12.6322 -12.0499 -11.9530  -9.8022  -9.7173  -9.1610
    -9.0781  -8.2822  -8.2020  -7.4099  -7.3370  -6.1850  -6.1231  -5.5184
    -5.4567  -5.3085  -5.2558  -4.1866  -4.1409  -3.2503  -3.2105  -1.1553
    -0.4138  -0.3933  -0.3599  -0.3136  -0.0826  -0.0661   0.0768   0.1214
     0.2495   0.2613   0.4923   1.4656   1.4993   1.8102   1.8483   2.1810
     2.4943   2.5255   2.8445   2.9182   3.5427   3.6081   4.2590   4.7429
     5.3713   7.4878   8.0323   8.0730   8.7502   8.9136   9.6072   9.9551
    10.5455  10.8323  11.5264  13.5529

          k = 0.2500 0.4330-0.2482 (  2347 PWs)   bands (ev):

   -41.4882 -12.7303 -12.6322 -12.0500 -11.9530  -9.8022  -9.7172  -9.1610
    -9.0781  -8.2821  -8.2020  -7.4099  -7.3370  -6.1849  -6.1231  -5.5182
    -5.4569  -5.3085  -5.2557  -4.1868  -4.1407  -3.2503  -3.2106  -1.1553
    -0.4136  -0.3935  -0.3605  -0.3129  -0.0826  -0.0661   0.0769   0.1214
     0.2494   0.2614   0.4924   1.4658   1.4991   1.8099   1.8486   2.1810
     2.4944   2.5254   2.8445   2.9185   3.5426   3.6082   4.2590   4.7431
     5.3710   7.4876   8.0323   8.0733   8.7504   8.9134   9.6073   9.9550
    10.5453  10.8319  11.5271  13.5536

          k = 0.2500-0.7217 0.2482 (  2340 PWs)   bands (ev):

   -41.4845 -12.0695 -11.9760 -11.7319 -11.6371 -11.0689 -10.9764 -10.1083
   -10.0218  -8.8613  -8.7811  -7.4048  -7.3321  -5.5292  -5.4673  -4.0679
    -4.0243  -3.2454  -3.2054  -3.0208  -2.9847  -2.5214  -2.4913  -2.0183
    -1.9877  -1.0141  -0.9763  -0.9221  -0.8898  -0.3676   0.0127   0.0954
     0.1407   0.4255   0.5655   0.5812   0.8138   0.8315   1.4495   1.4770
     1.4814   1.4927   1.6055   1.9138   2.6646   3.3002   3.9927   4.7580
     5.3853   7.4650   8.0494   9.0485   9.5901  10.7019  11.2083  11.4158
    11.9346  12.2891  12.5786  12.8040

          k = 0.2500-0.7217-0.2482 (  2340 PWs)   bands (ev):

   -41.4845 -12.0696 -11.9760 -11.7319 -11.6372 -11.0688 -10.9765 -10.1083
   -10.0218  -8.8614  -8.7810  -7.4048  -7.3321  -5.5292  -5.4672  -4.0680
    -4.0242  -3.2451  -3.2057  -3.0207  -2.9848  -2.5216  -2.4911  -2.0184
    -1.9876  -1.0144  -0.9760  -0.9221  -0.8897  -0.3676   0.0128   0.0957
     0.1404   0.4256   0.5654   0.5813   0.8139   0.8314   1.4494   1.4769
     1.4814   1.4927   1.6056   1.9139   2.6645   3.3002   3.9929   4.7580
     5.3853   7.4648   8.0497   9.0489   9.5899  10.7024  11.2069  11.4164
    11.9353  12.2889  12.5790  12.8025

          k = 0.2500-0.1443 0.2482 (  2355 PWs)   bands (ev):

   -41.4933 -13.0572 -12.9568 -11.0752 -10.9837 -10.1157 -10.0298  -9.7932
    -9.7078  -8.2808  -8.2001  -7.4394  -7.3646  -6.4564  -6.3970  -6.1692
    -6.1064  -4.1946  -4.1484  -3.0140  -2.9779  -2.0313  -2.0002  -1.7828
    -1.7448  -1.5433  -1.0133  -0.9785  -0.7028  -0.4174  -0.3971  -0.0781
    -0.0583   0.5749   0.5911   0.7996   1.5794   1.8827   2.2300   2.6329
     2.8674   2.8989   2.9613   3.1818   3.1848   3.5956   4.2519   4.3380
     4.9596   7.5737   8.0617   8.2507   8.7718   9.9155  10.4593  10.5343
    10.7293  11.2333  12.2286  12.4651

          k = 0.2500-0.1443-0.2482 (  2355 PWs)   bands (ev):

   -41.4932 -13.0572 -12.9568 -11.0753 -10.9837 -10.1156 -10.0299  -9.7932
    -9.7079  -8.2808  -8.2001  -7.4394  -7.3646  -6.4564  -6.3969  -6.1690
    -6.1065  -4.1945  -4.1485  -3.0139  -2.9781  -2.0312  -2.0003  -1.7827
    -1.7450  -1.5432  -1.0134  -0.9783  -0.7029  -0.4174  -0.3971  -0.0784
    -0.0580   0.5747   0.5914   0.7996   1.5796   1.8826   2.2300   2.6329
     2.8671   2.8991   2.9613   3.1818   3.1847   3.5957   4.2520   4.3379
     4.9596   7.5734   8.0617   8.2513   8.7717   9.9157  10.4592  10.5336
    10.7291  11.2339  12.2281  12.4661

     the Fermi energy is     7.5235 ev

!    total energy              =    -287.96291360 Ry
     estimated scf accuracy    <       0.00000003 Ry
     smearing contrib. (-TS)   =      -0.00255116 Ry
     internal energy E=F+TS    =    -287.96036244 Ry

     convergence has been achieved in   6 iterations
  * IN ARTn_QE::          25
 Elements:C  Li 

     Forces acting on atoms (cartesian axes, Ry/au):

     atom    1 type  1   force =    -0.00015077   -0.00049619    0.00102503
     atom    2 type  1   force =     0.00026796   -0.00017104   -0.00124211
     atom    3 type  1   force =    -0.00076224    0.00009527    0.00049822
     atom    4 type  1   force =    -0.00063334    0.00006310   -0.00060490
     atom    5 type  1   force =    -0.00041130    0.00137170   -0.00206532
     atom    6 type  1   force =    -0.00032106    0.00154595    0.00221610
     atom    7 type  1   force =     0.00180259   -0.00008560    0.00008843
     atom    8 type  1   force =     0.00193403   -0.00019472   -0.00001243
     atom    9 type  1   force =     0.00156172   -0.00029441    0.00005744
     atom   10 type  1   force =     0.00083628   -0.00038641    0.00021378
     atom   11 type  1   force =     0.00015931    0.00097399   -0.00073268
     atom   12 type  1   force =    -0.00046249    0.00087939    0.00051680
     atom   13 type  1   force =     0.00027499    0.00108954    0.00089331
     atom   14 type  1   force =    -0.00002292    0.00049105   -0.00121353
     atom   15 type  1   force =     0.00224999   -0.00059288   -0.00014542
     atom   16 type  1   force =     0.00196910   -0.00076251    0.00003873
     atom   17 type  1   force =    -0.00017977   -0.00093287   -0.00182946
     atom   18 type  1   force =     0.00037663   -0.00115918    0.00230446
     atom   19 type  1   force =    -0.00035743   -0.00076446   -0.00014412
     atom   20 type  1   force =     0.00030117   -0.00058240    0.00056166
     atom   21 type  1   force =     0.00144182   -0.00052798    0.00011334
     atom   22 type  1   force =     0.00168744   -0.00017716   -0.00015241
     atom   23 type  1   force =    -0.00006777   -0.00020913    0.00002422
     atom   24 type  1   force =    -0.00018344    0.00027922   -0.00046628
     atom   25 type  2   force =    -0.00000000    0.00054776    0.00005715

     Total force =     0.007980     Total SCF correction =     0.000305

     Entering FIRE :       iteration =     4

     FIRE Parameters: P = 0.00000009, dt = 26.62, alpha = 0.194 nsteppos =   8 at step  4


ATOMIC_POSITIONS (angstrom)
C             7.3445856568        0.0087660168       -0.1044633243
C             7.3447775267        0.0038378216        3.7715743358
C             6.1194077752        2.1281259825       -0.1022396982
C             6.1196799453        2.1232730090        3.7679661491
C             2.4528023248        0.0079172428       -0.1159881070
C             2.4529586358        0.0030791517        3.7807181090
C             1.2249633181        2.1336642812       -0.1088075041
C             1.2250593810        2.1287382890        3.7738125765
C             4.8989804624        0.0104777166       -0.1023987897
C             4.8991370603        0.0053881992        3.7621317407
C             3.6781327771        2.1341363377       -0.1014063832
C             3.6783181674        2.1290662202        3.7622014275
C            -0.0015900966        1.4252160250       -0.1074392118
C            -0.0014897834        1.4202479299        3.7748163750
C            -1.2245639813        3.5415501014       -0.1089406152
C            -1.2243975461        3.5366196533        3.7762240516
C             2.4546818421        1.4269024215       -0.1130488661
C             2.4549265798        1.4220776205        3.7771178946
C             1.2302564262        3.5467560121       -0.1032892803
C             1.2303913012        3.5418075611        3.7649935056
C             4.8993597753        1.4241687090       -0.1020717722
C             4.8996708101        1.4191798448        3.7631151069
C             3.6733131306        3.5452923974       -0.1006037400
C             3.6735982724        3.5402148474        3.7623229447
Li            1.4276822027        0.7088927187        1.8337030755



     Writing config-only to output data dir ./pwscf.save/
     NEW-OLD atomic charge density approx. for the potential

     total cpu time spent up to now is        6.6 secs

     Self-consistent Calculation

     iteration #  1     ecut=    20.00 Ry     beta= 0.70
     Davidson diagonalization with overlap
     ethr =  1.00E-06,  avg # of iterations =  2.0

     Threshold (ethr) on eigenvalues was too large:
     Diagonalizing with lowered threshold

     Davidson diagonalization with overlap
     ethr =  2.20E-08,  avg # of iterations =  2.7

     total cpu time spent up to now is        7.0 secs

     total energy              =    -287.96297289 Ry
     estimated scf accuracy    <       0.00002498 Ry

     iteration #  2     ecut=    20.00 Ry     beta= 0.70
     Davidson diagonalization with overlap
     ethr =  2.52E-08,  avg # of iterations =  2.0

     total cpu time spent up to now is        7.1 secs

     total energy              =    -287.96297477 Ry
     estimated scf accuracy    <       0.00001306 Ry

     iteration #  3     ecut=    20.00 Ry     beta= 0.70
     Davidson diagonalization with overlap
     ethr =  1.32E-08,  avg # of iterations =  2.0

     total cpu time spent up to now is        7.3 secs

     total energy              =    -287.96297614 Ry
     estimated scf accuracy    <       0.00002011 Ry

     iteration #  4     ecut=    20.00 Ry     beta= 0.70
     Davidson diagonalization with overlap
     ethr =  1.32E-08,  avg # of iterations =  2.0

     total cpu time spent up to now is        7.5 secs

     total energy              =    -287.96297925 Ry
     estimated scf accuracy    <       0.00000174 Ry

     iteration #  5     ecut=    20.00 Ry     beta= 0.70
     Davidson diagonalization with overlap
     ethr =  1.76E-09,  avg # of iterations =  2.0

     total cpu time spent up to now is        7.6 secs

     total energy              =    -287.96297956 Ry
     estimated scf accuracy    <       0.00000017 Ry

     iteration #  6     ecut=    20.00 Ry     beta= 0.70
     Davidson diagonalization with overlap
     ethr =  1.67E-10,  avg # of iterations =  2.0

     total cpu time spent up to now is        7.8 secs

     End of self-consistent calculation

          k = 0.2500 0.4330 0.2482 (  2347 PWs)   bands (ev):

   -41.4903 -12.7299 -12.6317 -12.0497 -11.9527  -9.8018  -9.7168  -9.1606
    -9.0777  -8.2817  -8.2015  -7.4095  -7.3366  -6.1852  -6.1232  -5.5178
    -5.4562  -5.3075  -5.2548  -4.1862  -4.1404  -3.2501  -3.2102  -1.1552
    -0.4126  -0.3920  -0.3600  -0.3130  -0.0818  -0.0657   0.0767   0.1213
     0.2489   0.2609   0.4926   1.4665   1.5003   1.8091   1.8471   2.1812
     2.4961   2.5277   2.8444   2.9186   3.5427   3.6087   4.2601   4.7431
     5.3716   7.4886   8.0322   8.0732   8.7495   8.9148   9.6087   9.9555
    10.5462  10.8318  11.5259  13.5514

          k = 0.2500 0.4330-0.2482 (  2347 PWs)   bands (ev):

   -41.4903 -12.7299 -12.6317 -12.0497 -11.9527  -9.8018  -9.7167  -9.1606
    -9.0777  -8.2817  -8.2015  -7.4095  -7.3366  -6.1851  -6.1232  -5.5177
    -5.4563  -5.3076  -5.2547  -4.1864  -4.1402  -3.2500  -3.2103  -1.1552
    -0.4124  -0.3923  -0.3605  -0.3125  -0.0817  -0.0657   0.0767   0.1212
     0.2489   0.2610   0.4927   1.4668   1.5001   1.8088   1.8475   2.1812
     2.4963   2.5275   2.8443   2.9189   3.5426   3.6088   4.2600   4.7432
     5.3714   7.4884   8.0321   8.0735   8.7497   8.9147   9.6087   9.9555
    10.5460  10.8317  11.5263  13.5520

          k = 0.2500-0.7217 0.2482 (  2340 PWs)   bands (ev):

   -41.4867 -12.0692 -11.9756 -11.7315 -11.6367 -11.0686 -10.9761 -10.1080
   -10.0214  -8.8610  -8.7807  -7.4043  -7.3316  -5.5293  -5.4673  -4.0683
    -4.0247  -3.2445  -3.2045  -3.0198  -2.9837  -2.5201  -2.4899  -2.0182
    -1.9875  -1.0143  -0.9764  -0.9208  -0.8883  -0.3676   0.0130   0.0959
     0.1417   0.4261   0.5662   0.5820   0.8139   0.8318   1.4498   1.4759
     1.4818   1.4918   1.6056   1.9139   2.6648   3.3006   3.9936   4.7586
     5.3861   7.4650   8.0495   9.0487   9.5899  10.7031  11.2088  11.4148
    11.9333  12.2892  12.5775  12.8044

          k = 0.2500-0.7217-0.2482 (  2340 PWs)   bands (ev):

   -41.4867 -12.0692 -11.9755 -11.7315 -11.6367 -11.0686 -10.9762 -10.1080
   -10.0214  -8.8611  -8.7806  -7.4043  -7.3316  -5.5293  -5.4672  -4.0684
    -4.0245  -3.2443  -3.2048  -3.0198  -2.9837  -2.5203  -2.4898  -2.0183
    -1.9874  -1.0146  -0.9761  -0.9208  -0.8883  -0.3676   0.0130   0.0963
     0.1413   0.4262   0.5661   0.5821   0.8139   0.8317   1.4497   1.4757
     1.4818   1.4918   1.6058   1.9139   2.6647   3.3006   3.9937   4.7586
     5.3861   7.4649   8.0497   9.0490   9.5898  10.7035  11.2079  11.4150
    11.9339  12.2889  12.5784  12.8027

          k = 0.2500-0.1443 0.2482 (  2355 PWs)   bands (ev):

   -41.4954 -13.0569 -12.9564 -11.0750 -10.9834 -10.1153 -10.0294  -9.7928
    -9.7073  -8.2805  -8.1998  -7.4395  -7.3646  -6.4549  -6.3954  -6.1690
    -6.1061  -4.1947  -4.1484  -3.0127  -2.9766  -2.0317  -2.0004  -1.7831
    -1.7451  -1.5433  -1.0139  -0.9791  -0.7024  -0.4169  -0.3965  -0.0770
    -0.0571   0.5763   0.5926   0.7999   1.5799   1.8826   2.2304   2.6328
     2.8695   2.9010   2.9624   3.1803   3.1837   3.5960   4.2527   4.3372
     4.9592   7.5754   8.0616   8.2524   8.7721   9.9155  10.4585  10.5343
    10.7313  11.2345  12.2308  12.4625

          k = 0.2500-0.1443-0.2482 (  2355 PWs)   bands (ev):

   -41.4954 -13.0569 -12.9564 -11.0750 -10.9833 -10.1153 -10.0295  -9.7928
    -9.7074  -8.2805  -8.1998  -7.4395  -7.3647  -6.4549  -6.3954  -6.1688
    -6.1063  -4.1946  -4.1485  -3.0126  -2.9767  -2.0315  -2.0005  -1.7829
    -1.7452  -1.5432  -1.0141  -0.9789  -0.7026  -0.4169  -0.3965  -0.0773
    -0.0568   0.5761   0.5928   0.7999   1.5800   1.8824   2.2305   2.6328
     2.8692   2.9011   2.9625   3.1803   3.1837   3.5961   4.2524   4.3374
     4.9592   7.5751   8.0617   8.2529   8.7720   9.9156  10.4578  10.5344
    10.7310  11.2351  12.2304  12.4635

     the Fermi energy is     7.5242 ev

!    total energy              =    -287.96297958 Ry
     estimated scf accuracy    <       0.00000003 Ry
     smearing contrib. (-TS)   =      -0.00253286 Ry
     internal energy E=F+TS    =    -287.96044673 Ry

     convergence has been achieved in   6 iterations
  * IN ARTn_QE::          25
 Elements:C  Li 

     Forces acting on atoms (cartesian axes, Ry/au):

     atom    1 type  1   force =     0.00101997    0.00012044    0.00026904
     atom    2 type  1   force =     0.00097132    0.00006561   -0.00095020
     atom    3 type  1   force =     0.00080405    0.00085203    0.00051506
     atom    4 type  1   force =     0.00065163    0.00064204   -0.00091919
     atom    5 type  1   force =     0.00049389    0.00044042   -0.00069035
     atom    6 type  1   force =     0.00052552    0.00032094    0.00138071
     atom    7 type  1   force =     0.00109332    0.00040666   -0.00006540
     atom    8 type  1   force =     0.00114248    0.00037461    0.00037864
     atom    9 type  1   force =    -0.00010507    0.00007646   -0.00005076
     atom   10 type  1   force =     0.00016158    0.00029833    0.00013180
     atom   11 type  1   force =    -0.00032973   -0.00052834   -0.00102192
     atom   12 type  1   force =    -0.00003461   -0.00039497    0.00102455
     atom   13 type  1   force =     0.00038157   -0.00019032    0.00076100
     atom   14 type  1   force =     0.00056719   -0.00000636   -0.00088422
     atom   15 type  1   force =     0.00082714   -0.00015628   -0.00032662
     atom   16 type  1   force =     0.00100089   -0.00001953    0.00026286
     atom   17 type  1   force =     0.00084103   -0.00031038   -0.00131519
     atom   18 type  1   force =     0.00067076   -0.00048564    0.00138417
     atom   19 type  1   force =     0.00062577    0.00018618   -0.00091904
     atom   20 type  1   force =     0.00045964    0.00021597    0.00098193
     atom   21 type  1   force =    -0.00002799   -0.00020059    0.00017351
     atom   22 type  1   force =    -0.00016962   -0.00022064   -0.00012036
     atom   23 type  1   force =    -0.00016884   -0.00104631    0.00069983
     atom   24 type  1   force =    -0.00032164   -0.00093687   -0.00074430
     atom   25 type  2   force =    -0.00000000    0.00049653    0.00004447

     Total force =     0.005494     Total SCF correction =     0.000475

     Entering FIRE :       iteration =     5

     FIRE Parameters: P = 0.00000011, dt = 29.28, alpha = 0.192 nsteppos =   9 at step  5


ATOMIC_POSITIONS (angstrom)
C             7.3456281722        0.0088940706       -0.1028373001
C             7.3459173832        0.0039204123        3.7694966509
C             6.1199539282        2.1285092280       -0.1013660618
C             6.1202558837        2.1234993815        3.7668557255
C             2.4532820898        0.0085220131       -0.1192480390
C             2.4536298246        0.0035110415        3.7843241417
C             1.2262969202        2.1337991846       -0.1087515029
C             1.2265695339        2.1285937399        3.7739181011
C             4.8998088730        0.0101078643       -0.1023209634
C             4.8997766564        0.0054064980        3.7624704480
C             3.6786616169        2.1341263861       -0.1027138136
C             3.6787480331        2.1294089635        3.7632024586
C            -0.0010148598        1.4254603614       -0.1059394106
C            -0.0008062201        1.4203096378        3.7727945430
C            -1.2232473043        3.5412750011       -0.1092144387
C            -1.2229480705        3.5363263704        3.7763221848
C             2.4556359533        1.4266801420       -0.1160310298
C             2.4560464555        1.4215747158        3.7808626868
C             1.2308781594        3.5465970713       -0.1036937572
C             1.2311552672        3.5415312117        3.7660806721
C             4.9001909496        1.4236198219       -0.1018912737
C             4.9003585700        1.4190232747        3.7628650228
C             3.6739255336        3.5447451021       -0.1004516155
C             3.6739122511        3.5401378573        3.7614768276
Li            1.4276822027        0.7098167595        1.8337897435



     Writing config-only to output data dir ./pwscf.save/
     NEW-OLD atomic charge density approx. for the potential

     total cpu time spent up to now is        7.9 secs

     Self-consistent Calculation

     iteration #  1     ecut=    20.00 Ry     beta= 0.70
     Davidson diagonalization with overlap
     ethr =  1.00E-06,  avg # of iterations =  2.7

     Threshold (ethr) on eigenvalues was too large:
     Diagonalizing with lowered threshold

     Davidson diagonalization with overlap
     ethr =  3.66E-08,  avg # of iterations =  2.0

     total cpu time spent up to now is        8.3 secs

     total energy              =    -287.96302536 Ry
     estimated scf accuracy    <       0.00004067 Ry

     iteration #  2     ecut=    20.00 Ry     beta= 0.70
     Davidson diagonalization with overlap
     ethr =  4.11E-08,  avg # of iterations =  2.0

     total cpu time spent up to now is        8.5 secs

     total energy              =    -287.96303225 Ry
     estimated scf accuracy    <       0.00000930 Ry

     iteration #  3     ecut=    20.00 Ry     beta= 0.70
     Davidson diagonalization with overlap
     ethr =  9.39E-09,  avg # of iterations =  2.3

     total cpu time spent up to now is        8.6 secs

     total energy              =    -287.96303421 Ry
     estimated scf accuracy    <       0.00000443 Ry

     iteration #  4     ecut=    20.00 Ry     beta= 0.70
     Davidson diagonalization with overlap
     ethr =  4.47E-09,  avg # of iterations =  2.3

     total cpu time spent up to now is        8.8 secs

     total energy              =    -287.96303504 Ry
     estimated scf accuracy    <       0.00000090 Ry

     iteration #  5     ecut=    20.00 Ry     beta= 0.70
     Davidson diagonalization with overlap
     ethr =  9.13E-10,  avg # of iterations =  2.0

     total cpu time spent up to now is        9.0 secs

     total energy              =    -287.96303515 Ry
     estimated scf accuracy    <       0.00000093 Ry

     iteration #  6     ecut=    20.00 Ry     beta= 0.70
     Davidson diagonalization with overlap
     ethr =  9.13E-10,  avg # of iterations =  1.0

     total cpu time spent up to now is        9.1 secs

     End of self-consistent calculation

          k = 0.2500 0.4330 0.2482 (  2347 PWs)   bands (ev):

   -41.4937 -12.7297 -12.6313 -12.0491 -11.9520  -9.8015  -9.7164  -9.1600
    -9.0770  -8.2814  -8.2011  -7.4087  -7.3357  -6.1838  -6.1218  -5.5192
    -5.4575  -5.3060  -5.2533  -4.1874  -4.1415  -3.2478  -3.2078  -1.1553
    -0.4130  -0.3923  -0.3603  -0.3125  -0.0784  -0.0627   0.0797   0.1244
     0.2484   0.2603   0.4932   1.4639   1.4977   1.8074   1.8453   2.1821
     2.4989   2.5309   2.8443   2.9200   3.5428   3.6081   4.2597   4.7452
     5.3741   7.4867   8.0337   8.0719   8.7516   8.9170   9.6110   9.9537
    10.5443  10.8308  11.5246  13.5495

          k = 0.2500 0.4330-0.2482 (  2347 PWs)   bands (ev):

   -41.4937 -12.7296 -12.6313 -12.0491 -11.9520  -9.8015  -9.7164  -9.1600
    -9.0770  -8.2814  -8.2012  -7.4087  -7.3357  -6.1838  -6.1219  -5.5191
    -5.4576  -5.3061  -5.2532  -4.1876  -4.1414  -3.2477  -3.2079  -1.1553
    -0.4128  -0.3926  -0.3607  -0.3121  -0.0783  -0.0628   0.0798   0.1243
     0.2483   0.2604   0.4933   1.4642   1.4974   1.8071   1.8457   2.1821
     2.4990   2.5307   2.8442   2.9203   3.5428   3.6081   4.2597   4.7453
     5.3739   7.4866   8.0336   8.0721   8.7518   8.9168   9.6110   9.9536
    10.5442  10.8309  11.5248  13.5501

          k = 0.2500-0.7217 0.2482 (  2340 PWs)   bands (ev):

   -41.4901 -12.0690 -11.9752 -11.7310 -11.6360 -11.0682 -10.9756 -10.1073
   -10.0206  -8.8606  -8.7802  -7.4040  -7.3311  -5.5273  -5.4653  -4.0691
    -4.0254  -3.2454  -3.2053  -3.0172  -2.9811  -2.5180  -2.4878  -2.0200
    -1.9892  -1.0162  -0.9784  -0.9188  -0.8862  -0.3677   0.0129   0.0936
     0.1394   0.4268   0.5696   0.5854   0.8142   0.8324   1.4536   1.4748
     1.4829   1.4934   1.6066   1.9138   2.6649   3.3013   3.9947   4.7576
     5.3853   7.4677   8.0524   9.0483   9.5894  10.7060  11.2110  11.4138
    11.9314  12.2884  12.5760  12.8035

          k = 0.2500-0.7217-0.2482 (  2340 PWs)   bands (ev):

   -41.4901 -12.0691 -11.9752 -11.7310 -11.6361 -11.0682 -10.9757 -10.1073
   -10.0206  -8.8606  -8.7802  -7.4040  -7.3312  -5.5274  -5.4653  -4.0692
    -4.0253  -3.2451  -3.2056  -3.0172  -2.9811  -2.5182  -2.4876  -2.0201
    -1.9891  -1.0165  -0.9780  -0.9189  -0.8861  -0.3676   0.0130   0.0939
     0.1391   0.4268   0.5695   0.5855   0.8142   0.8323   1.4535   1.4747
     1.4830   1.4933   1.6067   1.9138   2.6648   3.3013   3.9948   4.7575
     5.3853   7.4676   8.0526   9.0486   9.5893  10.7063  11.2105  11.4138
    11.9317  12.2880  12.5774  12.8015

          k = 0.2500-0.1443 0.2482 (  2355 PWs)   bands (ev):

   -41.4988 -13.0566 -12.9559 -11.0745 -10.9828 -10.1151 -10.0291  -9.7921
    -9.7066  -8.2797  -8.1989  -7.4398  -7.3648  -6.4528  -6.3932  -6.1702
    -6.1073  -4.1932  -4.1469  -3.0120  -2.9758  -2.0308  -1.9995  -1.7835
    -1.7455  -1.5433  -1.0135  -0.9787  -0.7019  -0.4140  -0.3936  -0.0778
    -0.0579   0.5763   0.5925   0.8000   1.5805   1.8825   2.2301   2.6329
     2.8732   2.9045   2.9629   3.1780   3.1810   3.5984   4.2556   4.3362
     4.9585   7.5780   8.0585   8.2551   8.7690   9.9178  10.4577  10.5362
    10.7324  11.2348  12.2337  12.4587

          k = 0.2500-0.1443-0.2482 (  2355 PWs)   bands (ev):

   -41.4988 -13.0566 -12.9559 -11.0745 -10.9827 -10.1150 -10.0291  -9.7921
    -9.7066  -8.2797  -8.1989  -7.4398  -7.3649  -6.4528  -6.3932  -6.1701
    -6.1075  -4.1931  -4.1470  -3.0119  -2.9759  -2.0307  -1.9996  -1.7833
    -1.7457  -1.5433  -1.0137  -0.9785  -0.7021  -0.4140  -0.3936  -0.0781
    -0.0576   0.5760   0.5927   0.8001   1.5806   1.8823   2.2302   2.6328
     2.8729   2.9046   2.9631   3.1780   3.1810   3.5985   4.2553   4.3364
     4.9585   7.5777   8.0585   8.2555   8.7689   9.9179  10.4568  10.5367
    10.7320  11.2353  12.2334  12.4598

     the Fermi energy is     7.5251 ev

!    total energy              =    -287.96303526 Ry
     estimated scf accuracy    <       0.00000008 Ry
     smearing contrib. (-TS)   =      -0.00251957 Ry
     internal energy E=F+TS    =    -287.96051569 Ry

     convergence has been achieved in   6 iterations
  * IN ARTn_QE::          25
 Elements:C  Li 

     Forces acting on atoms (cartesian axes, Ry/au):

     atom    1 type  1   force =     0.00000000    0.00000000    0.00000000
     atom    2 type  1   force =     0.00000000    0.00000000    0.00000000
     atom    3 type  1   force =     0.00000000    0.00000000    0.00000000
     atom    4 type  1   force =     0.00000000    0.00000000    0.00000000
     atom    5 type  1   force =     0.00000000    0.00000000    0.00000000
     atom    6 type  1   force =     0.00000000    0.00000000    0.00000000
     atom    7 type  1   force =     0.00000000    0.00000000    0.00000000
     atom    8 type  1   force =     0.00000000    0.00000000    0.00000000
     atom    9 type  1   force =     0.00000000    0.00000000    0.00000000
     atom   10 type  1   force =     0.00000000    0.00000000    0.00000000
     atom   11 type  1   force =     0.00000000    0.00000000    0.00000000
     atom   12 type  1   force =     0.00000000    0.00000000    0.00000000
     atom   13 type  1   force =     0.00000000    0.00000000    0.00000000
     atom   14 type  1   force =     0.00000000    0.00000000    0.00000000
     atom   15 type  1   force =     0.00000000    0.00000000    0.00000000
     atom   16 type  1   force =     0.00000000    0.00000000    0.00000000
     atom   17 type  1   force =     0.00000000    0.00000000    0.00000000
     atom   18 type  1   force =     0.00000000    0.00000000    0.00000000
     atom   19 type  1   force =     0.00000000    0.00000000    0.00000000
     atom   20 type  1   force =     0.00000000    0.00000000    0.00000000
     atom   21 type  1   force =     0.00000000    0.00000000    0.00000000
     atom   22 type  1   force =     0.00000000    0.00000000    0.00000000
     atom   23 type  1   force =     0.00000000    0.00000000    0.00000000
     atom   24 type  1   force =     0.00000000    0.00000000    0.00000000
     atom   25 type  2   force =     0.91144424    0.00000000    0.00000000

     Total force =     0.911444     Total SCF correction =     0.000665

     Entering FIRE :       iteration =     6

     FIRE Parameters: P = 0.00000000, dt = 20.00, alpha = 0.000 nsteppos =   1 at step  6


ATOMIC_POSITIONS (angstrom)
C             7.3456281722        0.0088940706       -0.1028373001
C             7.3459173832        0.0039204123        3.7694966509
C             6.1199539282        2.1285092280       -0.1013660618
C             6.1202558837        2.1234993815        3.7668557255
C             2.4532820898        0.0085220131       -0.1192480390
C             2.4536298246        0.0035110415        3.7843241417
C             1.2262969202        2.1337991846       -0.1087515029
C             1.2265695339        2.1285937399        3.7739181011
C             4.8998088730        0.0101078643       -0.1023209634
C             4.8997766564        0.0054064980        3.7624704480
C             3.6786616169        2.1341263861       -0.1027138136
C             3.6787480331        2.1294089635        3.7632024586
C            -0.0010148598        1.4254603614       -0.1059394106
C            -0.0008062201        1.4203096378        3.7727945430
C            -1.2232473043        3.5412750011       -0.1092144387
C            -1.2229480705        3.5363263704        3.7763221848
C             2.4556359533        1.4266801420       -0.1160310298
C             2.4560464555        1.4215747158        3.7808626868
C             1.2308781594        3.5465970713       -0.1036937572
C             1.2311552672        3.5415312117        3.7660806721
C             4.9001909496        1.4236198219       -0.1018912737
C             4.9003585700        1.4190232747        3.7628650228
C             3.6739255336        3.5447451021       -0.1004516155
C             3.6739122511        3.5401378573        3.7614768276
Li            1.6393530870        0.7098167595        1.8337897435



     Writing config-only to output data dir ./pwscf.save/
     NEW-OLD atomic charge density approx. for the potential

     total cpu time spent up to now is        9.2 secs

     Self-consistent Calculation

     iteration #  1     ecut=    20.00 Ry     beta= 0.70
     Davidson diagonalization with overlap
     ethr =  1.00E-06,  avg # of iterations =  9.0

     total cpu time spent up to now is        9.6 secs

     total energy              =    -287.95605700 Ry
     estimated scf accuracy    <       0.00704848 Ry

     iteration #  2     ecut=    20.00 Ry     beta= 0.70
     Davidson diagonalization with overlap
     ethr =  7.12E-06,  avg # of iterations =  2.0

     total cpu time spent up to now is        9.8 secs

     total energy              =    -287.95587844 Ry
     estimated scf accuracy    <       0.00247659 Ry

     iteration #  3     ecut=    20.00 Ry     beta= 0.70
     Davidson diagonalization with overlap
     ethr =  2.50E-06,  avg # of iterations =  2.3

     total cpu time spent up to now is       10.0 secs

     total energy              =    -287.95646886 Ry
     estimated scf accuracy    <       0.00195215 Ry

     iteration #  4     ecut=    20.00 Ry     beta= 0.70
     Davidson diagonalization with overlap
     ethr =  1.97E-06,  avg # of iterations =  2.3

     total cpu time spent up to now is       10.1 secs

     total energy              =    -287.95678708 Ry
     estimated scf accuracy    <       0.00029789 Ry

     iteration #  5     ecut=    20.00 Ry     beta= 0.70
     Davidson diagonalization with overlap
     ethr =  3.01E-07,  avg # of iterations =  2.0

     total cpu time spent up to now is       10.3 secs

     total energy              =    -287.95683743 Ry
     estimated scf accuracy    <       0.00010532 Ry

     iteration #  6     ecut=    20.00 Ry     beta= 0.70
     Davidson diagonalization with overlap
     ethr =  1.06E-07,  avg # of iterations =  1.3

     total cpu time spent up to now is       10.4 secs

     total energy              =    -287.95685552 Ry
     estimated scf accuracy    <       0.00000512 Ry

     iteration #  7     ecut=    20.00 Ry     beta= 0.70
     Davidson diagonalization with overlap
     ethr =  5.17E-09,  avg # of iterations =  2.0

     total cpu time spent up to now is       10.6 secs

     total energy              =    -287.95685669 Ry
     estimated scf accuracy    <       0.00000041 Ry

     iteration #  8     ecut=    20.00 Ry     beta= 0.70
     Davidson diagonalization with overlap
     ethr =  4.13E-10,  avg # of iterations =  2.0

     total cpu time spent up to now is       10.8 secs

     End of self-consistent calculation

          k = 0.2500 0.4330 0.2482 (  2347 PWs)   bands (ev):

   -41.4804 -12.7276 -12.6296 -12.0476 -11.9509  -9.7994  -9.7148  -9.1585
    -9.0762  -8.2796  -8.2003  -7.4064  -7.3337  -6.1815  -6.1194  -5.5189
    -5.4583  -5.3040  -5.2512  -4.1863  -4.1409  -3.2443  -3.2042  -1.1531
    -0.4116  -0.3917  -0.3610  -0.3087  -0.0761  -0.0591   0.0817   0.1261
     0.2503   0.2618   0.4925   1.4645   1.4981   1.8081   1.8457   2.1857
     2.5020   2.5335   2.8526   2.9188   3.5432   3.6177   4.2589   4.7447
     5.3726   7.4903   8.0058   8.0746   8.7492   8.8928   9.6031   9.9568
    10.5399  10.8373  11.5210  13.5532

          k = 0.2500 0.4330-0.2482 (  2347 PWs)   bands (ev):

   -41.4804 -12.7276 -12.6296 -12.0476 -11.9508  -9.7995  -9.7148  -9.1584
    -9.0762  -8.2796  -8.2003  -7.4064  -7.3337  -6.1814  -6.1194  -5.5188
    -5.4584  -5.3041  -5.2511  -4.1865  -4.1407  -3.2443  -3.2042  -1.1531
    -0.4113  -0.3922  -0.3614  -0.3083  -0.0760  -0.0592   0.0818   0.1260
     0.2503   0.2619   0.4926   1.4647   1.4978   1.8077   1.8460   2.1857
     2.5021   2.5333   2.8525   2.9190   3.5431   3.6177   4.2589   4.7448
     5.3724   7.4902   8.0058   8.0747   8.7493   8.8927   9.6031   9.9567
    10.5398  10.8374  11.5213  13.5536

          k = 0.2500-0.7217 0.2482 (  2340 PWs)   bands (ev):

   -41.4768 -12.0669 -11.9735 -11.7292 -11.6347 -11.0667 -10.9744 -10.1057
   -10.0195  -8.8586  -8.7786  -7.4024  -7.3307  -5.5245  -5.4623  -4.0685
    -4.0259  -3.2437  -3.2036  -3.0143  -2.9781  -2.5144  -2.4842  -2.0200
    -1.9895  -1.0152  -0.9778  -0.9160  -0.8837  -0.3665   0.0150   0.0947
     0.1396   0.4224   0.5728   0.5890   0.8156   0.8336   1.4557   1.4768
     1.4829   1.4978   1.6060   1.9197   2.6640   3.3055   3.9946   4.7669
     5.3828   7.4635   8.0509   9.0500   9.5827  10.6960  11.2038  11.4145
    11.9173  12.2819  12.5806  12.7842

          k = 0.2500-0.7217-0.2482 (  2340 PWs)   bands (ev):

   -41.4768 -12.0669 -11.9734 -11.7292 -11.6347 -11.0667 -10.9744 -10.1057
   -10.0195  -8.8586  -8.7785  -7.4024  -7.3307  -5.5245  -5.4623  -4.0686
    -4.0258  -3.2434  -3.2039  -3.0143  -2.9781  -2.5146  -2.4840  -2.0201
    -1.9894  -1.0155  -0.9775  -0.9161  -0.8836  -0.3664   0.0150   0.0950
     0.1393   0.4225   0.5727   0.5891   0.8156   0.8334   1.4557   1.4765
     1.4830   1.4977   1.6063   1.9197   2.6639   3.3055   3.9947   4.7669
     5.3828   7.4633   8.0512   9.0503   9.5826  10.6962  11.2036  11.4140
    11.9175  12.2821  12.5810  12.7826

          k = 0.2500-0.1443 0.2482 (  2355 PWs)   bands (ev):

   -41.4856 -13.0547 -12.9544 -11.0729 -10.9816 -10.1134 -10.0279  -9.7899
    -9.7049  -8.2776  -8.1970  -7.4387  -7.3658  -6.4489  -6.3885  -6.1704
    -6.1082  -4.1909  -4.1447  -3.0102  -2.9746  -2.0294  -1.9985  -1.7817
    -1.7436  -1.5415  -1.0117  -0.9764  -0.7045  -0.4107  -0.3907  -0.0761
    -0.0565   0.5784   0.5945   0.8040   1.5777   1.8877   2.2372   2.6297
     2.8751   2.9061   2.9665   3.1784   3.1818   3.5980   4.2554   4.3474
     4.9558   7.5616   8.0604   8.2532   8.7620   9.8964  10.4568  10.5328
    10.7282  11.2297  12.1630  12.4872

          k = 0.2500-0.1443-0.2482 (  2355 PWs)   bands (ev):

   -41.4856 -13.0547 -12.9543 -11.0729 -10.9815 -10.1134 -10.0279  -9.7899
    -9.7049  -8.2776  -8.1970  -7.4387  -7.3658  -6.4489  -6.3885  -6.1703
    -6.1083  -4.1908  -4.1448  -3.0101  -2.9747  -2.0293  -1.9985  -1.7815
    -1.7438  -1.5414  -1.0118  -0.9762  -0.7047  -0.4107  -0.3907  -0.0764
    -0.0562   0.5781   0.5947   0.8041   1.5778   1.8875   2.2373   2.6296
     2.8748   2.9062   2.9667   3.1785   3.1817   3.5980   4.2551   4.3476
     4.9558   7.5615   8.0605   8.2535   8.7619   9.8967  10.4550  10.5337
    10.7278  11.2304  12.1632  12.4893

     the Fermi energy is     7.5210 ev

!    total energy              =    -287.95685673 Ry
     estimated scf accuracy    <       0.00000004 Ry
     smearing contrib. (-TS)   =      -0.00268470 Ry
     internal energy E=F+TS    =    -287.95417203 Ry

     convergence has been achieved in   8 iterations
  * IN ARTn_QE::          25
 Elements:C  Li 

     Forces acting on atoms (cartesian axes, Ry/au):

     atom    1 type  1   force =     0.00129739   -0.00051725    0.00024229
     atom    2 type  1   force =     0.00109484   -0.00060269   -0.00114677
     atom    3 type  1   force =     0.00330563   -0.00128510    0.00032023
     atom    4 type  1   force =     0.00331650   -0.00110380   -0.00088721
     atom    5 type  1   force =     0.00292612   -0.00422422   -0.00382316
     atom    6 type  1   force =     0.00286408   -0.00439655    0.00476573
     atom    7 type  1   force =    -0.00151212   -0.00153682    0.00052837
     atom    8 type  1   force =    -0.00152645   -0.00131778   -0.00014714
     atom    9 type  1   force =    -0.00010269   -0.00009949   -0.00018653
     atom   10 type  1   force =     0.00018839   -0.00005058    0.00007939
     atom   11 type  1   force =     0.00216397   -0.00234428   -0.00101441
     atom   12 type  1   force =     0.00231860   -0.00228716    0.00126924
     atom   13 type  1   force =     0.00091878   -0.00053733    0.00078378
     atom   14 type  1   force =     0.00105888   -0.00011953   -0.00085511
     atom   15 type  1   force =    -0.00246967    0.00275075    0.00044208
     atom   16 type  1   force =    -0.00239091    0.00259699   -0.00047909
     atom   17 type  1   force =     0.00120063    0.00329732   -0.00489663
     atom   18 type  1   force =     0.00105484    0.00358187    0.00488292
     atom   19 type  1   force =     0.00103705    0.00109851   -0.00138335
     atom   20 type  1   force =     0.00082083    0.00102066    0.00133964
     atom   21 type  1   force =    -0.00117142    0.00144717    0.00020801
     atom   22 type  1   force =    -0.00128393    0.00122968   -0.00018542
     atom   23 type  1   force =     0.00204884    0.00168618    0.00085868
     atom   24 type  1   force =     0.00230597    0.00136353   -0.00070498
     atom   25 type  2   force =     0.00000000    0.00034994   -0.00001056

     Total force =     0.016988     Total SCF correction =     0.000457

     Entering FIRE :       iteration =     7

     FIRE Parameters: P = 0.00000000, dt = 22.00, alpha = 0.198 nsteppos =   6 at step  7


ATOMIC_POSITIONS (angstrom)
C             7.3459927470        0.0087487192       -0.1027692162
C             7.3462250400        0.0037510514        3.7691744016
C             6.1208828315        2.1281481055       -0.1012760754
C             6.1211878414        2.1231892059        3.7666064144
C             2.4541043474        0.0073349785       -0.1203223708
C             2.4544346501        0.0022755824        3.7856633419
[...]
    -5.4524  -5.3028  -5.2482  -4.1845  -4.1366  -3.2445  -3.2019  -1.1574
    -0.4106  -0.3882  -0.3545  -0.3091  -0.0740  -0.0572   0.0848   0.1307
     0.2523   0.2654   0.5030   1.4662   1.5006   1.8118   1.8508   2.1814
     2.5028   2.5346   2.8393   2.9314   3.5519   3.6054   4.2693   4.7458
     5.3856   7.4847   8.0468   8.0732   8.7633   8.9261   9.6210   9.9520
    10.5517  10.8122  11.5086  13.5300

          k = 0.2500-0.7217 0.2482 (  2340 PWs)   bands (ev):

   -41.5141 -12.0664 -11.9684 -11.7283 -11.6296 -11.0656 -10.9693 -10.1046
   -10.0141  -8.8575  -8.7743  -7.4008  -7.3253  -5.5229  -5.4594  -4.0654
    -4.0188  -3.2426  -3.2015  -3.0141  -2.9752  -2.5159  -2.4831  -2.0176
    -1.9835  -1.0132  -0.9732  -0.9163  -0.8807  -0.3695   0.0113   0.0961
     0.1429   0.4382   0.5734   0.5915   0.8138   0.8410   1.4589   1.4791
     1.4896   1.4991   1.6163   1.9106   2.6745   3.2989   4.0053   4.7529
     5.3949   7.4707   8.0634   9.0492   9.5984  10.7122  11.2153  11.3980
    11.9233  12.2913  12.5628  12.8071

          k = 0.2500-0.7217-0.2482 (  2340 PWs)   bands (ev):

   -41.5141 -12.0664 -11.9685 -11.7283 -11.6296 -11.0656 -10.9693 -10.1045
   -10.0143  -8.8575  -8.7743  -7.4008  -7.3253  -5.5231  -5.4591  -4.0654
    -4.0188  -3.2433  -3.2008  -3.0138  -2.9755  -2.5159  -2.4831  -2.0176
    -1.9835  -1.0130  -0.9734  -0.9160  -0.8810  -0.3696   0.0112   0.0956
     0.1435   0.4384   0.5742   0.5908   0.8139   0.8411   1.4592   1.4795
     1.4892   1.4988   1.6162   1.9102   2.6749   3.2990   4.0053   4.7528
     5.3951   7.4712   8.0628   9.0493   9.5982  10.7111  11.2164  11.3982
    11.9226  12.2922  12.5605  12.8093

          k = 0.2500-0.1443 0.2482 (  2355 PWs)   bands (ev):

   -41.5230 -13.0541 -12.9491 -11.0718 -10.9763 -10.1121 -10.0227  -9.7892
    -9.7006  -8.2763  -8.1933  -7.4360  -7.3583  -6.4502  -6.3889  -6.1669
    -6.1023  -4.1893  -4.1406  -3.0095  -2.9709  -2.0267  -1.9923  -1.7802
    -1.7401  -1.5454  -1.0090  -0.9727  -0.6916  -0.4101  -0.3877  -0.0757
    -0.0539   0.5778   0.5965   0.7975   1.5913   1.8809   2.2264   2.6447
     2.8754   2.9104   2.9707   3.1827   3.1861   3.5993   4.2657   4.3330
     4.9699   7.5820   8.0551   8.2655   8.7787   9.9267  10.4461  10.5419
    10.7327  11.2420  12.2604  12.4290

          k = 0.2500-0.1443-0.2482 (  2355 PWs)   bands (ev):

   -41.5230 -13.0541 -12.9491 -11.0718 -10.9762 -10.1122 -10.0226  -9.7892
    -9.7006  -8.2763  -8.1933  -7.4360  -7.3583  -6.4502  -6.3889  -6.1671
    -6.1021  -4.1890  -4.1410  -3.0098  -2.9706  -2.0267  -1.9924  -1.7802
    -1.7401  -1.5459  -1.0093  -0.9725  -0.6909  -0.4096  -0.3882  -0.0750
    -0.0545   0.5786   0.5957   0.7975   1.5914   1.8813   2.2262   2.6444
     2.8770   2.9088   2.9709   3.1828   3.1860   3.5990   4.2662   4.3328
     4.9698   7.5821   8.0550   8.2653   8.7787   9.9264  10.4464  10.5424
    10.7338  11.2405  12.2600  12.4287

     the Fermi energy is     7.5265 ev

!    total energy              =    -287.96505478 Ry
     estimated scf accuracy    <          3.0E-09 Ry
     smearing contrib. (-TS)   =      -0.00248610 Ry
     internal energy E=F+TS    =    -287.96256868 Ry

     convergence has been achieved in   6 iterations
  * IN ARTn_QE::          25
 Elements:C  Li 

     Forces acting on atoms (cartesian axes, Ry/au):

     atom    1 type  1   force =    -0.00001805   -0.00000954    0.00021760
     atom    2 type  1   force =     0.00003827   -0.00004778   -0.00019835
     atom    3 type  1   force =    -0.00001863   -0.00000469    0.00025492
     atom    4 type  1   force =     0.00003688   -0.00004171   -0.00025364
     atom    5 type  1   force =     0.00008421    0.00006393    0.00035378
     atom    6 type  1   force =     0.00013537    0.00001570   -0.00030069
     atom    7 type  1   force =     0.00008779    0.00006770    0.00030180
     atom    8 type  1   force =     0.00013600    0.00001972   -0.00026789
     atom    9 type  1   force =     0.00000094    0.00001674    0.00034328
     atom   10 type  1   force =     0.00007145   -0.00000579   -0.00041904
     atom   11 type  1   force =    -0.00000227   -0.00000077    0.00036918
     atom   12 type  1   force =     0.00005834   -0.00002675   -0.00042719
     atom   13 type  1   force =     0.00005507   -0.00000668    0.00020649
     atom   14 type  1   force =     0.00004951    0.00002816   -0.00016929
     atom   15 type  1   force =     0.00005693   -0.00000990    0.00026288
     atom   16 type  1   force =     0.00005235    0.00002267   -0.00020308
     atom   17 type  1   force =     0.00002006   -0.00003409    0.00038663
     atom   18 type  1   force =     0.00001065   -0.00000092   -0.00036815
     atom   19 type  1   force =     0.00001853   -0.00003947    0.00035246
     atom   20 type  1   force =     0.00000383   -0.00000842   -0.00036132
     atom   21 type  1   force =     0.00009589    0.00001498    0.00031845
     atom   22 type  1   force =     0.00007914    0.00002379   -0.00039049
     atom   23 type  1   force =     0.00008829    0.00001096    0.00030767
     atom   24 type  1   force =     0.00006769    0.00002295   -0.00036958
     atom   25 type  2   force =    -0.00120825   -0.00007079    0.00005357

     Total force =     0.002001     Total SCF correction =     0.000126

     Entering FIRE :       iteration =   196

     FIRE Parameters: P = 0.00000008, dt = 19.32, alpha = 0.167 nsteppos =  23 at step196


ATOMIC_POSITIONS (angstrom)
C             7.3892033103       -0.0047023604       -0.1181226205
C             7.3790199586        0.0013368346        3.7793350366
C             6.1641927533        2.1156867047       -0.1133773596
C             6.1540886745        2.1216588479        3.7741328817
C             2.4978141324       -0.0041268029       -0.1217744468
C             2.4876784276        0.0018179660        3.7853414107
C             1.2708777108        2.1217017721       -0.1205952678
C             1.2607467315        2.1276713769        3.7832771292
C             4.9439244305       -0.0025668505       -0.1150461772
C             4.9338234256        0.0035021064        3.7758295477
C             3.7220380218        2.1196778641       -0.1143630289
C             3.7119065088        2.1258830937        3.7754416713
C             0.0435016176        1.4123758505       -0.1199638494
C             0.0333137834        1.4183599670        3.7815998622
C            -1.1788137844        3.5284877656       -0.1192976034
C            -1.1889852533        3.5344528035        3.7816508640
C             2.4990991995        1.4129762970       -0.1208308988
C             2.4890382192        1.4190178520        3.7839034883
C             1.2749957126        3.5343480706       -0.1152860478
C             1.2648817464        3.5403846793        3.7775900402
C             4.9440274548        1.4106855487       -0.1144859993
C             4.9339391899        1.4167339469        3.7748828201
C             3.7172006499        3.5302015213       -0.1134214146
C             3.7070440027        3.5363989390        3.7737421504
Li            1.2848746484        0.7100348386        1.8308394456



     Writing config-only to output data dir ./pwscf.save/
     NEW-OLD atomic charge density approx. for the potential

     total cpu time spent up to now is      246.2 secs

     Self-consistent Calculation

     iteration #  1     ecut=    20.00 Ry     beta= 0.70
     Davidson diagonalization with overlap
     ethr =  1.00E-06,  avg # of iterations =  2.0

     Threshold (ethr) on eigenvalues was too large:
     Diagonalizing with lowered threshold

     Davidson diagonalization with overlap
     ethr =  1.74E-08,  avg # of iterations =  2.0

     total cpu time spent up to now is      246.6 secs

     total energy              =    -287.96506982 Ry
     estimated scf accuracy    <       0.00001856 Ry

     iteration #  2     ecut=    20.00 Ry     beta= 0.70
     Davidson diagonalization with overlap
     ethr =  1.88E-08,  avg # of iterations =  3.0

     total cpu time spent up to now is      246.8 secs

     total energy              =    -287.96507200 Ry
     estimated scf accuracy    <       0.00001642 Ry

     iteration #  3     ecut=    20.00 Ry     beta= 0.70
     Davidson diagonalization with overlap
     ethr =  1.66E-08,  avg # of iterations =  2.0

     total cpu time spent up to now is      246.9 secs

     total energy              =    -287.96507593 Ry
     estimated scf accuracy    <       0.00000046 Ry

     iteration #  4     ecut=    20.00 Ry     beta= 0.70
     Davidson diagonalization with overlap
     ethr =  4.60E-10,  avg # of iterations =  2.0

     total cpu time spent up to now is      247.1 secs

     total energy              =    -287.96507592 Ry
     estimated scf accuracy    <       0.00000054 Ry

     iteration #  5     ecut=    20.00 Ry     beta= 0.70
     Davidson diagonalization with overlap
     ethr =  4.60E-10,  avg # of iterations =  1.8

     total cpu time spent up to now is      247.2 secs

     End of self-consistent calculation

          k = 0.2500 0.4330 0.2482 (  2347 PWs)   bands (ev):

   -41.5160 -12.7273 -12.6251 -12.0470 -11.9461  -9.7987  -9.7109  -9.1572
    -9.0717  -8.2785  -8.1959  -7.4055  -7.3305  -6.1802  -6.1162  -5.5165
    -5.4532  -5.3036  -5.2483  -4.1852  -4.1369  -3.2441  -3.2031  -1.1573
    -0.4105  -0.3891  -0.3552  -0.3094  -0.0751  -0.0570   0.0839   0.1308
     0.2516   0.2653   0.5024   1.4660   1.4998   1.8114   1.8503   2.1815
     2.5024   2.5341   2.8394   2.9306   3.5512   3.6052   4.2685   4.7459
     5.3845   7.4841   8.0471   8.0728   8.7627   8.9257   9.6202   9.9524
    10.5504  10.8135  11.5105  13.5321

          k = 0.2500 0.4330-0.2482 (  2347 PWs)   bands (ev):

   -41.5160 -12.7273 -12.6251 -12.0470 -11.9461  -9.7987  -9.7109  -9.1572
    -9.0717  -8.2785  -8.1959  -7.4056  -7.3304  -6.1799  -6.1165  -5.5167
    -5.4529  -5.3032  -5.2487  -4.1849  -4.1372  -3.2448  -3.2024  -1.1573
    -0.4110  -0.3887  -0.3549  -0.3095  -0.0744  -0.0576   0.0845   0.1303
     0.2519   0.2649   0.5021   1.4657   1.5001   1.8114   1.8503   2.1815
     2.5024   2.5341   2.8394   2.9306   3.5510   3.6053   4.2683   4.7459
     5.3847   7.4847   8.0470   8.0724   8.7625   8.9260   9.6204   9.9519
    10.5510  10.8135  11.5101  13.5317

          k = 0.2500-0.7217 0.2482 (  2340 PWs)   bands (ev):

   -41.5123 -12.0667 -11.9691 -11.7286 -11.6302 -11.0659 -10.9699 -10.1049
   -10.0147  -8.8578  -8.7749  -7.4012  -7.3259  -5.5233  -5.4599  -4.0658
    -4.0194  -3.2430  -3.2021  -3.0145  -2.9757  -2.5163  -2.4836  -2.0180
    -1.9841  -1.0136  -0.9737  -0.9167  -0.8812  -0.3694   0.0114   0.0957
     0.1424   0.4373   0.5730   0.5911   0.8139   0.8402   1.4585   1.4786
     1.4891   1.4986   1.6154   1.9107   2.6736   3.2990   4.0044   4.7529
     5.3940   7.4707   8.0626   9.0491   9.5978  10.7121  11.2152  11.3991
    11.9247  12.2910  12.5641  12.8069

          k = 0.2500-0.7217-0.2482 (  2340 PWs)   bands (ev):

   -41.5123 -12.0667 -11.9691 -11.7286 -11.6302 -11.0659 -10.9699 -10.1048
   -10.0149  -8.8578  -8.7749  -7.4012  -7.3258  -5.5235  -5.4597  -4.0658
    -4.0194  -3.2437  -3.2014  -3.0142  -2.9760  -2.5163  -2.4836  -2.0179
    -1.9841  -1.0134  -0.9740  -0.9164  -0.8815  -0.3695   0.0113   0.0952
     0.1429   0.4375   0.5738   0.5903   0.8140   0.8403   1.4587   1.4790
     1.4886   1.4984   1.6154   1.9102   2.6740   3.2991   4.0043   4.7528
     5.3942   7.4712   8.0620   9.0492   9.5976  10.7110  11.2162  11.3994
    11.9240  12.2920  12.5617  12.8091

          k = 0.2500-0.1443 0.2482 (  2355 PWs)   bands (ev):

   -41.5212 -13.0544 -12.9497 -11.0721 -10.9769 -10.1124 -10.0233  -9.7895
    -9.7011  -8.2767  -8.1938  -7.4364  -7.3588  -6.4506  -6.3894  -6.1673
    -6.1029  -4.1896  -4.1412  -3.0099  -2.9715  -2.0271  -1.9929  -1.7805
    -1.7406  -1.5453  -1.0094  -0.9733  -0.6924  -0.4105  -0.3882  -0.0761
    -0.0544   0.5774   0.5960   0.7976   1.5904   1.8809   2.2264   2.6439
     2.8750   2.9100   2.9698   3.1822   3.1856   3.5993   4.2649   4.3329
     4.9690   7.5821   8.0552   8.2647   8.7778   9.9268  10.4473  10.5415
    10.7325  11.2415  12.2605  12.4304

          k = 0.2500-0.1443-0.2482 (  2355 PWs)   bands (ev):

   -41.5212 -13.0543 -12.9497 -11.0721 -10.9769 -10.1125 -10.0232  -9.7895
    -9.7011  -8.2767  -8.1938  -7.4364  -7.3589  -6.4506  -6.3894  -6.1675
    -6.1027  -4.1893  -4.1415  -3.0102  -2.9712  -2.0270  -1.9929  -1.7806
    -1.7406  -1.5457  -1.0097  -0.9731  -0.6918  -0.4100  -0.3887  -0.0755
    -0.0550   0.5782   0.5952   0.7975   1.5905   1.8813   2.2263   2.6435
     2.8767   2.9083   2.9700   3.1822   3.1856   3.5991   4.2653   4.3328
     4.9689   7.5823   8.0551   8.2645   8.7779   9.9264  10.4476  10.5420
    10.7335  11.2400  12.2601  12.4301

     the Fermi energy is     7.5265 ev

!    total energy              =    -287.96507597 Ry
     estimated scf accuracy    <       0.00000006 Ry
     smearing contrib. (-TS)   =      -0.00248432 Ry
     internal energy E=F+TS    =    -287.96259166 Ry

     convergence has been achieved in   5 iterations
  * IN ARTn_QE::          25
 Elements:C  Li 
     |> Configuration Files: * Start: initp.xsf | sad0001.xsf | min0001.xsf | min0002.xsf
     |> BLOCK FINALIZE..
     !> CLEANING ARTn | Fail: 0
 ARTn calculation converged, stopping
  * PLUGIN_EXT_FORCE::   1.000000000000000E-003   1.00000000000000     

     Forces acting on atoms (cartesian axes, Ry/au):

     atom    1 type  1   force =     0.00000000    0.00000000    0.00000000
     atom    2 type  1   force =     0.00000000    0.00000000    0.00000000
     atom    3 type  1   force =     0.00000000    0.00000000    0.00000000
     atom    4 type  1   force =     0.00000000    0.00000000    0.00000000
     atom    5 type  1   force =     0.00000000    0.00000000    0.00000000
     atom    6 type  1   force =     0.00000000    0.00000000    0.00000000
     atom    7 type  1   force =     0.00000000    0.00000000    0.00000000
     atom    8 type  1   force =     0.00000000    0.00000000    0.00000000
     atom    9 type  1   force =     0.00000000    0.00000000    0.00000000
     atom   10 type  1   force =     0.00000000    0.00000000    0.00000000
     atom   11 type  1   force =     0.00000000    0.00000000    0.00000000
     atom   12 type  1   force =     0.00000000    0.00000000    0.00000000
     atom   13 type  1   force =     0.00000000    0.00000000    0.00000000
     atom   14 type  1   force =     0.00000000    0.00000000    0.00000000
     atom   15 type  1   force =     0.00000000    0.00000000    0.00000000
     atom   16 type  1   force =     0.00000000    0.00000000    0.00000000
     atom   17 type  1   force =     0.00000000    0.00000000    0.00000000
     atom   18 type  1   force =     0.00000000    0.00000000    0.00000000
     atom   19 type  1   force =     0.00000000    0.00000000    0.00000000
     atom   20 type  1   force =     0.00000000    0.00000000    0.00000000
     atom   21 type  1   force =     0.00000000    0.00000000    0.00000000
     atom   22 type  1   force =     0.00000000    0.00000000    0.00000000
     atom   23 type  1   force =     0.00000000    0.00000000    0.00000000
     atom   24 type  1   force =     0.00000000    0.00000000    0.00000000
     atom   25 type  2   force =     0.00000000    0.00000000    0.00000000

     Total force =     0.000000     Total SCF correction =     0.000348

     FIRE: convergence achieved in 196 steps

     End of FIRE minimization

     Final energy =    -287.9650759739 Ry

Begin final coordinates
     new unit-cell volume =   1556.32082 a.u.^3 (   230.62295 Ang^3 )
     density =      2.12549 g/cm^3

CELL_PARAMETERS (angstrom)
   7.347096364   0.000000000   0.000000000
  -2.449029672   4.241846086   0.000000000
   0.000000000   0.000000000   7.400002805

ATOMIC_POSITIONS (angstrom)
C             7.3434736002        0.0080897121       -0.1078388044
C             7.3437064750        0.0035357964        3.7745619321
C             6.1187029261        2.1289696558       -0.1032551139
C             6.1186754869        2.1240970904        3.7686774468
C             2.4519944605        0.0085243656       -0.1095790393
C             2.4517197477        0.0041460631        3.7749777827
C             1.2252540856        2.1340813612       -0.1090395021
C             1.2250510219        2.1298447320        3.7743422801
C             4.8978530321        0.0115015793       -0.1026979254
C             4.8984153569        0.0055969232        3.7616032109
C             3.6759006945        2.1340154131       -0.1004507324
C             3.6763875768        2.1280367666        3.7619811350
C            -0.0022082960        1.4252023073       -0.1094267476
C            -0.0023516109        1.4205770351        3.7778119536
C            -1.2243422786        3.5414195261       -0.1089916882
C            -1.2245052922        3.5366684259        3.7765643960
C             2.4534043050        1.4258621472       -0.1086973512
C             2.4533501931        1.4212745500        3.7710460299
C             1.2293415633        3.5468460692       -0.1042953284
C             1.2293725275        3.5425352644        3.7644543272
C             4.8982619080        1.4248628914       -0.1021164497
C             4.8989704787        1.4189785347        3.7634579787
C             3.6709326864        3.5443869904       -0.0994418659
C             3.6716851132        3.5386134123        3.7627585587
Li            1.2160113183        0.7077294975        1.8335935169
End final coordinates



     Writing all to output data dir ./pwscf.save/
 
     init_run     :      0.14s CPU      0.15s WALL (       1 calls)
     electrons    :    209.07s CPU    215.85s WALL (     197 calls)
     update_pot   :      9.55s CPU     11.22s WALL (     196 calls)
     forces       :      9.82s CPU     10.00s WALL (     197 calls)

     Called by init_run:
     wfcinit      :      0.08s CPU      0.08s WALL (       1 calls)
     potinit      :      0.02s CPU      0.02s WALL (       1 calls)
     hinit0       :      0.02s CPU      0.02s WALL (       1 calls)

     Called by electrons:
     c_bands      :    172.46s CPU    177.93s WALL (    1242 calls)
     sum_band     :     25.66s CPU     26.69s WALL (    1242 calls)
     v_of_rho     :      4.68s CPU      4.78s WALL (    1295 calls)
     newd         :      6.72s CPU      6.76s WALL (    1295 calls)
     mix_rho      :      0.41s CPU      0.41s WALL (    1242 calls)

     Called by c_bands:
     init_us_2    :      2.01s CPU      2.06s WALL (   16092 calls)
     init_us_2:cp :      1.97s CPU      2.03s WALL (   16092 calls)
     cegterg      :    164.73s CPU    170.13s WALL (    7452 calls)

     Called by *egterg:
     cdiaghg      :     68.97s CPU     70.17s WALL (   22377 calls)
     h_psi        :     74.53s CPU     77.89s WALL (   24423 calls)
     s_psi        :      4.85s CPU      5.15s WALL (   24423 calls)
     g_psi        :      0.28s CPU      0.29s WALL (   16965 calls)

     Called by h_psi:
     h_psi:calbec :      7.44s CPU      7.91s WALL (   24423 calls)
     vloc_psi     :     60.93s CPU     63.47s WALL (   24423 calls)
     add_vuspsi   :      5.47s CPU      5.83s WALL (   24423 calls)

     General routines
     calbec       :     11.30s CPU     11.96s WALL (   36603 calls)
     fft          :      5.26s CPU      6.89s WALL (   17175 calls)
     ffts         :      0.11s CPU      0.12s WALL (    2537 calls)
     fftw         :     65.88s CPU     68.75s WALL ( 2634432 calls)
     interpolate  :      0.20s CPU      0.21s WALL (    1295 calls)
 
     Parallel routines
 
     PWSCF        :   3m57.32s CPU   4m 7.42s WALL

 
   This run was terminated on:  12:33:43  15Nov2022            

=------------------------------------------------------------------------------=
   JOB DONE.
=------------------------------------------------------------------------------=
