 #

 38 atoms
 1 atom types

    -11.6305         11.5334     xlo xhi
    -11.4893         11.5415     ylo yhi
    -11.9413         11.7501     zlo zhi
  0.0 0.0 0.0 xy xz yz


  Atoms

 1   1          1.240129947662       -0.017503099516        1.556259989738
 2   1          0.250674009323       -1.399749994278       -0.673035979271
 3   1          1.219280004501        0.485473006964        0.549885988235
 4   1          1.533380031586       -0.027041299269       -0.377492010593
 5   1         -0.085063703358       -0.005059570074        1.750149965286
 6   1         -0.814145982265       -0.981500983238       -0.687689006329
 7   1         -0.296867996454        1.541479945183        1.161999940872
 8   1         -0.651567995548        1.282230019569        0.084937401116
 9   1         -1.262230038643        1.037080049515        1.043460011482
10   1          0.592465996742       -0.909428000450        1.657459974289
11   1         -1.571189999580       -0.200297996402       -0.620563983917
12   1         -0.887987017632       -0.197933003306       -1.497529983521
13   1          1.448029994965       -0.615809023380        0.620720028877
14   1         -0.220259994268       -1.104660034180       -1.629870057106
15   1          0.375436007977       -0.225215002894       -1.941259980202
16   1         -1.309290051460       -0.833781003952        0.373212009668
17   1         -1.097049951553       -0.086401700974        1.297260046005
18   1         -0.844972014427        1.409809947014       -1.054980039597
19   1         -1.262930035591        0.261011004448        0.296732008457
20   1          1.355329990387       -1.368579983711       -0.253800004721
21   1         -0.374206006527       -0.875820994377        1.091789960861
22   1          0.447144985199        1.345970034599        0.390181988478
23   1          0.573080003262       -1.322309970856        0.631038010120
24   1          0.810504972935        0.387277990580       -1.103539943695
25   1         -0.375113010406       -0.376147985458        0.115078002214
26   1          1.010470032692       -0.720917999744       -1.149150013924
27   1         -0.415589004755       -1.489279985428        0.191191002727
28   1          0.177463993430        1.281190037727       -0.700626015663
29   1         -1.630519986153        0.948610007763       -0.446213006973
30   1          0.447735995054       -0.210457995534        0.833148002625
31   1         -0.171413004398        0.641001999378       -1.529569983482
32   1          0.540974974632        0.812128007412        1.351909995079
33   1          1.220229983330        1.073740005493       -0.365444988012
34   1          0.015190700069       -0.314361989498       -0.916428029537
35   1         -0.657398998737        0.432595014572       -0.580107986927
36   1         -0.324425011873        0.512579977512        0.766712009907
37   1          0.333741992712        0.412306010723       -0.106996998191
38   1          0.660942018032       -0.582226991653       -0.128829002380
