 #

 38 atoms
 1 atom types

    -11.4861         11.4114     xlo xhi
    -11.6847         11.6233     ylo yhi
    -11.9390         11.7942     zlo zhi
  0.0 0.0 0.0 xy xz yz


  Atoms

 1   1          0.975449979305       -0.088556498289        1.602740049362
 2   1         -0.461528986692       -1.172610044479       -0.614076018333
 3   1          1.132429957390        0.469772994518        0.639594018459
 4   1          1.411389946938       -0.103680998087       -0.254280000925
 5   1         -0.122037000954       -0.184958994389        1.794149994850
 6   1         -1.294139981270       -0.880837976933        0.103518001735
 7   1         -0.363979011774        1.599079966545        1.101909995079
 8   1         -0.574981987476        1.623319983482        0.018019100651
 9   1         -0.797756016254        0.661888003349        1.524279952049
10   1         -0.628468990326       -1.161360025406        1.566200017929
11   1         -1.380900025368        0.250663012266        0.158947005868
12   1         -1.162750005722       -0.192640006542       -0.830902993679
13   1          1.241430044174       -0.649846971035        0.687469005585
14   1          0.197396993637       -1.235870003700       -1.562440037727
15   1          0.516241014004       -0.210054993629       -1.939039945602
16   1          0.735311985016       -1.618119955063        0.467467993498
17   1         -0.838755011559       -0.276663988829        0.955873012543
18   1         -0.606133997440        0.336623996496       -1.661800026894
19   1         -1.338639974594        1.204579949379        0.705196976662
20   1          1.030580043793       -0.745500981808       -1.074970006943
21   1         -0.270159006119       -1.150419950485        0.516551971436
22   1          0.469401001930        1.309769988060        0.408964991570
23   1          0.453628003597       -1.050009965897        1.372300028801
24   1          1.355110049248        0.279325008392       -1.277420043945
25   1         -0.445482999086       -0.245140999556       -0.045648198575
26   1         -0.758832991123       -0.757179975510       -1.661900043488
27   1          0.534581005573       -1.684669971466       -0.622375011444
28   1          0.281967014074        1.506909966469       -0.632887005806
29   1         -1.486099958420        1.167700052261       -0.423837006092
30   1          0.250360995531       -0.170640006661        0.764369010925
31   1          0.366742998362        0.687597990036       -1.298830032349
32   1          0.302929997444        0.750840008259        1.349689960480
33   1          1.257789969444        1.005769968033       -0.400599986315
34   1          0.010492299683       -0.281210005283       -0.997556984425
35   1         -0.521502971649        0.690337002277       -0.608291983604
36   1         -0.402395009995        0.663459002972        0.501248002052
37   1          0.421552002430        0.375548988581       -0.202546998858
38   1          0.509741008282       -0.723205983639       -0.129077002406
