 #

 38 atoms
 1 atom types

    -11.3481         11.4047     xlo xhi
    -11.8724         11.7098     ylo yhi
    -11.8088         11.9047     zlo zhi
  0.0 0.0 0.0 xy xz yz


  Atoms

 1   1          0.828742980957       -0.765942990780        0.473504990339
 2   1          0.417663007975       -1.783740043640       -1.345289945602
 3   1          1.362579941750       -0.254525005817       -0.374352008104
 4   1          0.711814999580        0.146282002330       -1.793540000916
 5   1         -0.830331981182        0.227437004447        1.387279987335
 6   1         -0.450419992208       -0.971889019012       -0.902408003807
 7   1         -0.397973001003        1.247830033302        1.400490045547
 8   1         -0.560055017471        1.709810018539        0.381850987673
 9   1         -1.348129987717        1.058419942856        0.861721992493
10   1          0.208290994167        0.416532009840        1.864619970322
11   1         -1.111410021782       -0.042061101645       -0.713041007519
12   1          0.141363993287       -1.275619983673        1.151870012283
13   1          1.238489985466        0.114926002920        0.946259021759
14   1          0.179251000285       -0.830265998840       -1.808760046959
15   1         -0.410127997398        0.040243700147       -1.552629947662
16   1         -1.255800008774       -0.954769015312       -0.108251996338
17   1         -1.293650031090        0.050796199590        0.375923007727
18   1         -0.437754988670        1.655400037766       -0.728735029697
19   1         -1.182019948959        0.981437981129       -0.224466994405
20   1          0.704634010792       -1.872400045395        0.400041013956
21   1         -0.807218015194       -0.780332982540        0.904537975788
22   1          0.547562003136        0.944824993610        0.944212019444
23   1          0.803611993790       -0.567112982273        1.692549943924
24   1          0.891876995564        0.698947012424       -0.835825979710
25   1         -0.325735986233       -0.360902011395       -0.004264779855
26   1          1.163179993629       -0.827582001686       -1.319990038872
27   1         -0.293246001005       -1.434450030327        0.148109003901
28   1          0.379970014095        1.320359945297       -0.068725697696
29   1         -1.021199941635        0.914478003979       -1.313820004463
30   1          0.100364997983       -0.164638996124        0.973248004913
31   1          0.086958602071        1.040789961815       -1.521180033684
32   1         -0.300563007593       -0.593411982059        1.904690027237
33   1          1.404680013657        0.880272984505        0.147606998682
34   1          0.361882001162       -0.250108003616       -0.854508996010
35   1         -0.234569996595        0.587294995785       -0.593626976013
36   1         -0.391070991755        0.648087978363        0.467956990004
37   1          0.543821990490        0.244781002402        0.097259700298
38   1          0.574535012245       -1.199200034142       -0.460321009159
