 #

 38 atoms
 1 atom types

    -11.4147         11.4288     xlo xhi
    -11.7479         11.6583     ylo yhi
    -11.6071         12.0706     zlo zhi
  0.0 0.0 0.0 xy xz yz


  Atoms

 1   1          1.311660051346       -0.150575995445        0.630168974400
 2   1          0.447878003120       -1.641299962997       -0.589501976967
 3   1          1.422019958496       -0.088837496936       -0.514023005962
 4   1          0.788788020611       -0.070296198130       -1.506189942360
 5   1         -0.853263974190        0.310369998217        1.433809995651
 6   1         -0.575307011604       -1.097200036049       -0.872915029526
 7   1         -0.339285999537        1.285369992256        1.264860033989
 8   1         -0.520325005054        1.585669994354        0.166371002793
 9   1         -1.329759955406        1.101109981537        0.778611004353
10   1          0.013008600101        0.605228006840        2.070610046387
11   1         -1.320919990540       -0.126647993922       -0.785061001778
12   1         -0.116782002151       -1.423830032349        1.233870029449
13   1          0.637368023396       -1.747889995575        0.527445018291
14   1          0.267212986946       -1.060389995575       -1.577200055122
15   1         -0.295062005520       -0.116650000215       -1.274129986763
16   1         -1.330039978027       -0.954015970230       -0.037091400474
17   1         -1.414700031281        0.071204498410        0.357549995184
18   1         -0.624507009983        1.655300021172       -0.950639009476
19   1         -1.236570000648        0.900552988052       -0.322313010693
20   1          1.240730047226       -1.041720032692       -0.015241499990
21   1         -0.694481015205       -0.583600997925        0.836664974689
22   1          0.464632987976        1.213009953499        0.528392016888
23   1          0.884527981281       -0.905363976955        1.358010053635
24   1          0.880964994431        0.791962981224       -0.856526970863
25   1         -0.466800004244       -0.279902994633       -0.169957995415
26   1          1.283110022545       -1.026919960976       -1.125720024109
27   1         -0.355594992638       -1.412410020828        0.143244996667
28   1          0.374574989080        1.658259987831       -0.472063004971
29   1         -0.993727028370        0.724479973316       -1.398530006409
30   1          0.385461002588        0.255212008953        1.098919987679
31   1          0.088214799762        0.890017986298       -1.607100009918
32   1         -0.086490899324       -0.462502986193        1.750049948692
33   1          1.428750038147        0.851818978786        0.114147000015
34   1          0.437997013330       -0.578872025013       -0.611047029495
35   1         -0.212744995952        0.720987975597       -0.581266999245
36   1         -0.437115997076        0.549849987030        0.468383014202
37   1          0.519837975502        0.266957014799        0.019373400137
38   1          0.326739996672       -0.668437004089        0.486018985510
