 #

 38 atoms
 1 atom types

    -11.4628         11.6293     xlo xhi
    -11.6418         11.5840     ylo yhi
    -12.0457         11.7742     zlo zhi
  0.0 0.0 0.0 xy xz yz


  Atoms

 1   1          0.810042023659        0.321085989475        1.583539962769
 2   1          0.250479996204       -1.412930011749       -0.970741987228
 3   1          1.492069959641        0.164123997092        0.734449982643
 4   1          1.589329957962       -0.227852001786       -0.301741987467
 5   1          0.166973993182        1.209730029106        1.576320052147
 6   1         -0.723716020584       -1.052620053291       -0.602234005928
 7   1         -0.296631991863        1.300909996033        0.532059013844
 8   1         -1.462759971619        0.714123010635       -0.404617011547
 9   1         -0.889407992363        1.040070056915        1.528290033340
10   1         -0.055063400418       -0.347005009651        1.774209976196
11   1         -1.257609963417       -0.308905005455       -0.002073629992
12   1         -0.930188000202       -0.041869599372       -1.014340043068
13   1          1.629259943962       -0.916527986526        0.565811991692
14   1         -0.625137984753        0.208253994584       -2.045660018921
15   1          0.414718985558       -0.089190900326       -1.807559967041
16   1         -1.052369952202       -1.298619985580        0.434321999550
17   1         -0.915283977985       -0.401917994022        1.078580021858
18   1         -0.629422008991        1.430040001869       -0.536633014679
19   1         -1.142560005188        0.557843983173        0.622889995575
20   1          1.070199966431       -0.699868023396       -1.154170036316
21   1         -0.180309996009       -1.239420056343        1.115880012512
22   1          0.770677983761        1.007570028305        0.704270005226
23   1          0.796253979206       -1.620849967003        0.757174015045
24   1          0.931192994118        0.383639007807       -0.956173002720
25   1         -0.217942997813       -0.565186977386        0.248257994652
26   1         -0.405099004507       -0.804524004459       -1.632550001144
27   1         -0.066625803709       -1.641780018806        0.070162199438
28   1          0.412607997656        1.144819974899       -0.325197994709
29   1         -1.136420011520        0.978428006172       -1.421910047531
30   1          0.644904017448       -0.535070002079        0.921296000481
31   1         -0.103626996279        0.676297008991       -1.180860042572
32   1         -1.338909983635        1.584040045738        0.307060986757
33   1          1.473099946976        0.862169027328       -0.128205001354
34   1          0.101236000657       -0.329672992229       -0.771501004696
35   1         -0.412119001150        0.424385011196       -0.157490998507
36   1         -0.084436699748        0.314099997282        0.905421972275
37   1          0.617586970329        0.141308993101        0.066747300327
38   1          0.755007028580       -0.929135978222       -0.113087996840
