 #

 38 atoms
 1 atom types

    -11.7543         11.8364     xlo xhi
    -11.4958         11.5532     ylo yhi
    -12.0055         11.8625     zlo zhi
  0.0 0.0 0.0 xy xz yz


  Atoms

 1   1         -0.054606001824        1.094220042229        1.477679967880
 2   1          1.446079969406       -0.672619998455       -0.800307989120
 3   1          1.420950055122       -0.575228989124        1.122599959373
 4   1         -0.732267022133        0.778276026249       -1.326760053635
 5   1          1.283429980278        0.467096000910       -0.810918986797
 6   1         -0.682017028332       -1.178179979324       -0.705524027348
 7   1         -0.989265978336       -0.225629001856        0.774882972240
 8   1          0.684624016285        1.363479971886        0.732326984406
 9   1         -0.977818012238        0.835444986820        0.945370018482
10   1          0.697937011719       -1.495810031891        1.164989948273
11   1         -1.646440029144        0.543663978577       -0.789678990841
12   1         -0.161266997457        0.151181995869       -2.005500078201
13   1         -0.261579990387        0.012938500382        1.547819972038
14   1         -1.012079954147       -0.273144990206       -1.296059966087
15   1         -0.138244003057       -0.867582023144       -1.622390031815
16   1          0.046964101493       -1.452219963074        0.257903993130
17   1         -1.754320025444        0.441769987345        0.300817012787
18   1          0.392908990383        0.891744971275       -0.286422997713
19   1         -0.373629987240        1.553189992905       -0.694517016411
20   1          1.836429953575       -0.302515000105        0.136567994952
21   1         -1.028100013733       -1.245849967003        0.354586988688
22   1          0.805422008038        0.358787000179        1.309640049934
23   1          0.566462993622       -0.635779976845        1.862460017204
24   1          0.775650024414       -0.218718007207       -1.526319980621
25   1         -1.350029945374       -0.393624007702       -0.270063996315
26   1          0.402918994427       -0.998736023903       -0.693693995476
27   1          1.097470045090       -1.122630000114        0.180774003267
28   1          1.306339979172        0.606383025646        0.335052013397
29   1         -1.334310054779        1.401489973068       -0.081626996398
30   1         -0.387831002474       -1.069550037384        1.249259948730
31   1          0.386779010296        0.897372007370       -1.376399993896
32   1         -0.325572997332        1.466549992561        0.379487007856
33   1          0.719802975655       -0.142470002174       -0.137118995190
34   1         -0.712872982025        0.533838987350       -0.203481003642
35   1         -0.047506898642        0.025001900271       -0.895399987698
36   1          0.401735007763       -0.523449003696        0.797724008560
37   1         -0.000431460998        0.435095012188        0.586331009865
38   1         -0.301735013723       -0.463788986206        0.005901460070
