 #

 38 atoms
 1 atom types

    -11.6348         11.5278     xlo xhi
    -11.8438         11.6063     ylo yhi
    -11.9531         11.6858     zlo zhi
  0.0 0.0 0.0 xy xz yz


  Atoms

 1   1          1.335890054703       -0.800511002541        0.925648987293
 2   1          0.593768000603       -1.843760013580       -0.394019007683
 3   1          1.319090008736        0.061626400799        0.283196985722
 4   1          0.987722992897       -0.077105201781       -0.899735987186
 5   1         -0.837602972984        0.974982023239        1.538619995117
 6   1         -0.238119006157       -1.251569986343        0.007096809801
 7   1          0.271838992834        1.000219941139        1.619289994240
 8   1         -0.169870004058        1.606259942055        0.798761010170
 9   1         -1.346119999886        0.743462026119        0.553358972073
10   1         -0.127376005054       -0.021305900067        1.681879997253
11   1         -0.879674971104       -0.710648000240       -0.705121994019
12   1         -0.596884012222       -0.596412003040       -1.777060031891
13   1          1.527760028839       -1.508190035820        0.092606097460
14   1          0.170372992754       -1.010329961777       -1.024780035019
15   1         -0.349168986082        0.495505988598       -1.953150033951
16   1         -0.462686002254       -1.026810050011        1.152860045433
17   1         -1.620390057564       -0.045604098588       -0.206627994776
18   1         -0.898329019547        1.588889956474       -0.026680499315
19   1         -1.634789943695        0.999422013760       -0.578189015388
20   1          1.273820042610       -1.160290002823       -0.991428971291
21   1         -1.125560045242       -0.076793499291        1.259920001030
22   1          0.740333020687        0.945107996464        0.625407993793
23   1          0.538285017014       -0.904389023781        1.685760021210
24   1          0.463106989861        0.859564006329       -1.245530009270
25   1         -0.694916009903       -0.344433009624        0.309561014175
26   1          0.479155004025       -0.275029003620       -1.849820017815
27   1          0.533460974693       -1.502269983292        0.719078004360
28   1          0.125036001205        1.276489973068       -0.245450004935
29   1         -1.180670022964        0.223437994719       -1.228659987450
30   1          0.302790999413       -0.400505006313        0.751927971840
31   1         -0.601606011391        1.186840057373       -1.108510017395
32   1          0.959801018238        0.155454993248        1.382349967957
33   1          1.162989974022        0.908215999603       -0.400222986937
34   1         -0.138335004449        0.013429899700       -1.007879972458
35   1         -0.692332983017        0.539718985558       -0.271158009768
36   1         -0.265978008509        0.536019980907        0.742573022842
37   1          0.327547013760        0.228477999568       -0.097556203604
38   1          0.747640013695       -0.787176012993       -0.118312999606
