 #

 38 atoms
 1 atom types

    -11.6463         11.5105     xlo xhi
    -11.8956         11.5970     ylo yhi
    -11.5197         11.6987     zlo zhi
  0.0 0.0 0.0 xy xz yz


  Atoms

 1   1          1.053840041161       -0.241527006030        1.508430004120
 2   1         -0.467628002167       -1.261909961700       -0.678892016411
 3   1          1.162279963493        0.403108000755        0.589169025421
 4   1          1.436689972878       -0.111346997321       -0.360637009144
 5   1         -0.014671700075       -0.121037997305        1.698690056801
 6   1         -1.287690043449       -0.918905019760        0.072563603520
 7   1         -0.387474000454        1.406239986420        1.098150014877
 8   1         -0.506633996964        1.597040057182        0.006926690228
 9   1         -0.902764022350        0.464033007622        1.467300057411
10   1         -0.667066991329       -0.512095987797        0.936859011650
11   1         -1.468269944191        0.154963001609       -0.238213002682
12   1         -1.003319978714       -0.386054009199       -1.044839978218
13   1          1.510540008545       -0.635038018227        0.578185021877
14   1          0.384712010622       -1.369809985161       -1.331719994545
15   1          0.424477994442       -1.895619988441       -0.364939004183
16   1          0.843849003315       -1.468209981918        0.552860975266
17   1         -1.646280050278       -0.075743898749        0.809029996395
18   1         -0.673839986324        1.571059942245       -1.108060002327
19   1         -1.214429974556        0.911190986633        0.520412981510
20   1          1.152799963951       -0.626549005508       -1.254559993744
21   1         -0.214203998446       -1.311089992523        0.368519008160
22   1          0.471428990364        1.241659998894        0.362388014793
23   1          0.199284002185       -1.148300051689        1.396450042725
24   1          0.889271020889        0.447658985853       -1.210360050201
25   1         -0.416999012232       -0.339767992496       -0.110932998359
26   1         -1.271229982376        0.636146008968       -1.314910054207
27   1          1.498409986496       -1.276409983635       -0.366548985243
28   1          0.315322011709        1.279620051384       -0.723393023014
29   1         -1.498720049858        1.269819974899       -0.452073991299
30   1          0.406365007162       -0.391607999802        0.651264011860
31   1         -0.171007007360        0.671838998795       -1.519670009613
32   1          0.485626995564        0.763725996017        1.357030034065
33   1          1.309669971466        0.992721021175       -0.333366990089
34   1          0.073132596910       -0.299360007048       -1.112020015717
35   1         -0.547321975231        0.644694983959       -0.489324003458
36   1         -0.246810004115        0.457076013088        0.588402986526
37   1          0.445360988379        0.293076008558       -0.232807993889
38   1          0.543298006058       -0.815311014652       -0.315373986959
