 #

 38 atoms
 1 atom types

    -11.4343         11.5195     xlo xhi
    -11.6694         11.6451     ylo yhi
    -11.9129         12.1626     zlo zhi
  0.0 0.0 0.0 xy xz yz


  Atoms

 1   1          0.232834994793        0.540080010891        2.162580013275
 2   1          0.104910001159       -1.669389963150       -0.824461996555
 3   1          0.885685980320        1.065539956093        1.454740047455
 4   1          1.519449949265       -0.489942014217       -0.173075005412
 5   1         -0.307787001133       -0.353751987219        1.787469983101
 6   1         -1.350219964981       -0.910409986973        0.192956998944
 7   1         -0.192552000284        1.384750008583        0.970363020897
 8   1         -0.140080004930        1.645089983940       -0.148246005177
 9   1         -0.723903000355        0.689419984818        1.637850046158
10   1         -0.784425973892       -1.136090040207        1.119439959526
11   1         -1.295840024948        0.138346001506       -0.118446998298
12   1         -0.984498023987       -0.670969009399       -0.872511982918
13   1          1.257079958916        0.222955003381        0.799838006496
14   1         -0.599545001984       -0.154200002551       -1.780959963799
15   1         -0.372671008110       -1.207659959793       -1.682229995728
16   1          1.253159999847       -0.874387979507        0.824029028416
17   1         -0.852501988411       -0.070174701512        0.871133983135
18   1         -0.358363986015        1.309640049934       -1.241709947586
19   1         -1.213969945908        0.969676971436        0.666913986206
20   1          0.537786006927       -0.570447981358       -1.912889957428
21   1         -0.404092013836       -1.514019966125        0.145584002137
22   1          0.673162996769        1.069540023804        0.384288996458
23   1          0.818192005157       -0.278861999512        1.681769967079
24   1          1.038550019264        0.002330669900       -1.032819986343
25   1         -0.384914010763       -0.452082991600       -0.004995329771
26   1         -1.434340000153        0.352793991566       -1.202250003815
27   1          1.073250055313       -1.103790044785       -1.049250006676
28   1          0.473239004612        0.878063976765       -0.656390011311
29   1         -1.088680028915        1.150069952011       -0.440055012703
30   1          0.180850997567       -0.703885018826        0.866532027721
31   1          0.271766990423        0.475354999304       -1.651440024376
32   1          0.172922000289        0.343746989965        1.063179969788
33   1          1.471729993820        0.618292987347       -0.221770003438
34   1          0.127646997571       -0.571739971638       -0.922191977501
35   1         -0.435923993587        0.309316992760       -0.811551988125
36   1         -0.321619987488        0.628094971180        0.174134999514
37   1          0.560334980488        0.013077599928        0.000443685014
38   1          0.593379974365       -1.074370026588       -0.055991798639
