 #

 38 atoms
 1 atom types

    -11.5290         11.5949     xlo xhi
    -11.5181         11.5623     ylo yhi
    -11.8725         11.8582     zlo zhi
  0.0 0.0 0.0 xy xz yz


  Atoms

 1   1          0.982948005199        0.122469000518        1.679780006409
 2   1         -0.707445025444       -0.999090015888       -0.930409014225
 3   1          1.096639990807        0.607770025730        0.697840988636
 4   1          1.477169990540        0.026653099805       -0.178372994065
 5   1         -0.095169797540       -0.113595001400        1.858150005341
 6   1         -1.369770050049       -0.342803001404       -0.410071998835
 7   1         -0.521151006222        1.562260031700        0.967969000340
 8   1         -0.672878026962        1.404500007629       -0.172065004706
 9   1         -0.917886972427        0.587911009789        1.444710016251
10   1          0.659803986549       -0.925206005573        1.543959975243
11   1         -1.505270004272        0.117141000926        0.547706007957
12   1         -1.050629973412       -0.023088699207       -1.429149985313
13   1          1.362769961357       -0.471271008253        0.802240014076
14   1          0.695820987225       -1.288759946823       -1.082749962807
15   1          0.825114011765       -0.427363008261       -1.791650056839
16   1         -1.040519952774       -1.255669951439        0.198655992746
17   1         -0.743678987026       -0.448379993439        1.043900012970
18   1         -0.854034006596        1.137089967728       -1.273380041122
19   1         -1.453870058060        1.187590003014        0.591521978378
20   1          1.594859957695       -1.034989953041       -0.470445990562
21   1         -0.032366998494       -1.214540004730        0.755590021610
22   1          0.314408987761        1.310570001602        0.317081987858
23   1          1.023749947548       -1.518069982529        0.622469007969
24   1          0.949222028255        0.387876987457       -1.078979969025
25   1         -0.362865000963       -0.458023995161        0.022643899545
26   1         -0.247513994575       -0.658881008625       -1.872539997101
27   1         -0.018096800894       -1.512089967728       -0.278937011957
28   1          0.205225005746        1.165510058403       -0.800427973270
29   1         -1.528959989548        0.742706000805       -0.422717988491
30   1          0.302828997374       -0.161030992866        0.838442027569
31   1         -0.035696201026        0.422349005938       -1.604490041733
32   1          0.188133999705        0.809701979160        1.310199975967
33   1          1.210129976273        1.108109951019       -0.290345013142
34   1          0.175488993526       -0.370671004057       -0.902580976486
35   1         -0.525429010391        0.381835013628       -0.590722024441
36   1         -0.483612000942        0.535584986210        0.469429999590
37   1          0.426443010569        0.328186005354       -0.115420997143
38   1          0.676088988781       -0.722284018993       -0.016825199127
