 #

 38 atoms
 1 atom types

    -11.6029         12.0923     xlo xhi
    -11.6412         11.7363     ylo yhi
    -11.5899         11.5338     zlo zhi
  0.0 0.0 0.0 xy xz yz


  Atoms

 1   1          1.539989948273        0.024893799797        0.698206007481
 2   1          0.441998988390       -1.373569965363       -0.263112008572
 3   1          1.164350032806       -0.011226399802       -0.281562000513
 4   1          1.449699997902        0.176854997873       -1.310320019722
 5   1         -0.989485025406        0.468544989824        1.533789992332
 6   1         -0.624072015285       -1.090520024300       -0.470382988453
 7   1          0.032096698880        1.456959962845        0.892416000366
 8   1         -0.910574018955        1.736310005188        0.214070007205
 9   1         -1.602910041809        1.148810029030        0.885676980019
10   1          2.092309951782       -0.465943008661       -0.621399998665
11   1         -1.338410019875       -0.235438004136       -0.429369986057
12   1         -0.625209987164       -0.318194985390       -1.275959968567
13   1          0.740549027920       -1.641160011292        0.755860984325
14   1          0.093416102231       -1.170979976654       -1.306159973145
15   1          0.430225998163       -0.149869993329       -1.589879989624
16   1         -1.350389957428       -1.015159964561        0.364614009857
17   1         -1.500900030136        0.053622700274        0.628992974758
18   1         -0.826871991158        1.444769978523       -0.869763970375
19   1         -1.482710003853        0.842832982540       -0.180160999298
20   1          1.443789958954       -1.004099965096        0.118924997747
21   1         -0.841708004475       -0.606283009052        1.264580011368
22   1          0.871985971928        0.785138010979        1.086009979248
23   1          1.288050055504       -0.853374004364        1.271239995956
24   1          0.542935013771        0.664453983307       -0.851925015450
25   1         -0.503015995026       -0.295563995838        0.279424011707
26   1          1.098019957542       -0.840340971947       -0.976595997810
27   1         -0.298267990351       -1.319100022316        0.566735029221
28   1          0.052005998790        1.394119977951       -0.202870994806
29   1         -1.344499945641        0.527761995792       -1.236809968948
30   1         -0.001630570041        0.114743001759        1.192299962044
31   1         -0.293983012438        0.713283002377       -1.558449983597
32   1          0.200077995658       -0.939980983734        1.473469972610
33   1          1.162899971008        1.061949968338        0.021432999521
34   1          0.191885992885       -0.358608990908       -0.546891987324
35   1         -0.498896986246        0.470099985600       -0.511503994465
36   1         -0.658224999905        0.732985973358        0.527023017406
37   1          0.317102998495        0.437557995319        0.212132006884
38   1          0.538383007050       -0.566282987595        0.496219992638
