 #

 38 atoms
 1 atom types

    -11.7357         11.6579     xlo xhi
    -12.0038         11.5510     ylo yhi
    -11.9001         11.6096     zlo zhi
  0.0 0.0 0.0 xy xz yz


  Atoms

 1   1          1.205250024796       -0.326995998621        1.459499955177
 2   1          0.228356003761       -1.378200054169       -0.599348008633
 3   1          1.016499996185        0.278488993645        0.561599016190
 4   1          1.342710018158       -0.051987398416       -0.482558995485
 5   1         -0.557491004467        0.254550993443        1.609609961510
 6   1         -0.821675002575       -1.075270056725       -0.513329029083
 7   1         -0.155065000057        1.448850035667        1.351740002632
 8   1         -0.252867013216        1.548300027847        0.120605997741
 9   1         -1.073940038681        1.276929974556        0.776476025581
10   1          0.019149299711       -1.266870021820        1.569560050964
11   1         -1.444129943848       -0.170931994915       -0.331526994705
12   1         -1.007590055466       -0.301970988512       -1.353240013123
13   1          1.657860040665       -0.585044980049        0.440786987543
14   1         -0.298346012831       -1.148620009422       -1.518820047379
15   1          0.037024199963       -0.179101005197       -1.900089979172
16   1         -0.146612003446       -1.304610013962        0.448112994432
17   1         -1.242699980736        0.218180999160        0.694334983826
18   1         -0.850121974945        1.551010012627       -0.815008997917
19   1         -1.735739946365        0.919274985790       -0.035262800753
20   1          1.315199971199       -1.237769961357       -0.379835009575
21   1         -0.836851000786       -0.720125973225        1.110939979553
22   1          0.673036992550        1.295830011368        0.611837983131
23   1          0.878636002541       -1.207059979439        0.875652015209
24   1          0.703293979168        0.419191986322       -1.239199995995
25   1         -0.462776988745       -0.311455994844        0.170402005315
26   1          0.827629983425       -0.699645996094       -1.235120058060
27   1          0.690720021725       -2.003849983215        0.162082999945
28   1          0.275418996811        1.370689988136       -0.815753996372
29   1         -1.472630023956        0.662141025066       -1.078690052032
30   1          0.200175002217       -0.341627985239        1.024270057678
31   1         -0.383608996868        0.632552027702       -1.283839941025
32   1          0.534741997719        0.589576005936        1.506539940834
33   1          1.227380037308        1.034790039062       -0.319860994816
34   1         -0.079527899623       -0.316316008568       -0.818279027939
35   1         -0.726608991623        0.635204970837       -0.260930001736
36   1         -0.186242997646        0.608078002930        0.682704985142
37   1          0.329840004444        0.460440009832       -0.232318997383
38   1          0.571600019932       -0.576623022556        0.036248899996
