 #

 38 atoms
 1 atom types

    -11.5956         11.6089     xlo xhi
    -11.6472         11.6229     ylo yhi
    -12.1210         11.9231     zlo zhi
  0.0 0.0 0.0 xy xz yz


  Atoms

 1   1          0.947390019894        0.074481002986        1.772040009499
 2   1          0.291617989540       -1.367939949036       -0.796778976917
 3   1          1.101480007172        0.477647989988        0.771381974220
 4   1          1.608929991722       -0.150463998318       -0.028005300090
 5   1         -0.183711007237        0.148442000151        1.690899968147
 6   1         -0.775355994701       -1.122419953346       -0.688350975513
 7   1         -0.385520994663        1.622930049896        0.360114008188
 8   1         -1.595610022545        0.608542978764       -0.611333012581
 9   1         -0.675136983395        1.081230044365        1.334390044212
10   1          0.328673988581       -0.811869025230        1.923099994659
11   1         -1.328989982605       -0.324014008045       -0.105683997273
12   1         -1.004359960556       -0.149921998382       -1.155640006065
13   1          1.420060038567       -0.587619006634        0.977477014065
14   1         -0.528532981873        0.037947598845       -2.120970010757
15   1          0.519733011723       -0.238047003746       -1.859120011330
16   1         -1.112400054932       -1.287330031395        0.351381987333
17   1         -0.824865996838       -0.055138301104        0.833657979965
18   1         -0.791998982430        1.356089949608       -0.654200017452
19   1         -1.182780027390        0.870489001274        0.372736990452
20   1          1.084360003471       -0.584093987942       -0.916711986065
21   1         -0.401908010244       -1.032039999962        1.129420042038
22   1          0.705106019974        1.480569958687        0.537546992302
23   1          0.645326972008       -1.401059985161        1.051480054855
24   1          0.872062027454        0.472023010254       -1.086030006409
25   1         -0.256200999022       -0.599362015724        0.095684699714
26   1         -0.329535007477       -0.973884999752       -1.691930055618
27   1         -0.063480101526       -1.647150039673        0.221812993288
28   1          0.261813014746        1.117730021477       -0.393875986338
29   1         -1.195009946823        0.845489978790       -1.612329959869
30   1          0.379983991385       -0.324943006039        0.905131995678
31   1         -0.174426004291        0.661082983017       -1.297129988670
32   1          0.448347002268        1.033200025558        1.512030005455
33   1          1.335119962692        0.921248018742       -0.199085995555
34   1          0.028031999245       -0.328992992640       -0.908859014511
35   1         -0.520631015301        0.365729987621       -0.301468014717
36   1         -0.014234700240        0.633656024933        0.611329972744
37   1          0.566053986549        0.108622997999       -0.107430003583
38   1          0.800607025623       -0.930868029594        0.083321303129
