 #

 38 atoms
 1 atom types

    -11.6167         11.4679     xlo xhi
    -12.0909         11.5393     ylo yhi
    -11.8677         11.7173     zlo zhi
  0.0 0.0 0.0 xy xz yz


  Atoms

 1   1          1.019180059433       -0.167605996132        1.659610033035
 2   1         -0.587737023830       -1.249019980431       -0.338620990515
 3   1          1.278660058975        0.438472002745        0.708015978336
 4   1          1.442749977112        0.416043996811       -0.878911972046
 5   1         -0.086996398866       -0.313820987940        1.717260003090
 6   1         -1.427970051765       -1.019420027733        0.301991999149
 7   1         -0.430628985167        1.423910021782        1.056409955025
 8   1         -0.419207006693        1.467329978943       -0.051161799580
 9   1         -0.798954010010        0.431073009968        1.375460028648
10   1         -0.591718971729       -0.481617987156        0.745064020157
11   1         -1.068969964981        0.002013159916       -0.143924996257
12   1         -1.485399961472       -0.775475025177       -0.791208982468
13   1          1.400390028954       -0.751918017864        0.799440979958
14   1          0.386177003384       -0.811342000961       -1.867670059204
15   1          0.091534897685       -2.090919971466       -0.216306999326
16   1          0.499058008194       -1.202929973602        0.260412991047
17   1         -1.616739988327       -0.062004499137        0.816214025021
18   1         -0.458169996738        1.539260029793       -1.161919951439
19   1         -1.265660047531        0.934436023235        0.501461029053
20   1          1.363800048828       -0.704015970230       -1.246039986610
21   1         -0.427846014500       -1.555899977684        0.707693994045
22   1          0.536445021629        1.331079959869        0.523998022079
23   1          0.480619013309       -1.156039953232        1.338109970093
24   1          0.501385986805       -0.074934199452       -1.075940012932
25   1         -0.035942900926       -0.357656985521       -0.191133007407
26   1         -1.238669991493        0.221366003156       -1.250939965248
27   1          1.099570035934       -0.428820997477       -0.203853994608
28   1          0.523643970490        1.502740025520       -0.596238970757
29   1         -1.295160055161        1.063140034676       -0.574010014534
30   1          0.452347010374       -0.227966994047        0.734470009804
31   1          0.399163007736        0.900780022144       -1.493710041046
32   1          0.320307999849        0.651724994183        1.354509949684
33   1          1.467900037766        1.200950026512       -0.085408300161
34   1         -0.468991011381       -0.534322023392       -1.168849945068
35   1         -0.319642990828        0.557888984680       -0.708841025829
36   1         -0.271344006062        0.516337990761        0.426414012909
37   1          0.614517986774        0.515299022198       -0.165613994002
38   1          0.418300002813       -1.148110032082       -0.816228985786
