 #

 38 atoms
 1 atom types

    -11.5112         12.0736     xlo xhi
    -11.5718         11.5755     ylo yhi
    -11.6443         11.4452     zlo zhi
  0.0 0.0 0.0 xy xz yz


  Atoms

 1   1          1.324020028114        0.208394005895        0.613372027874
 2   1          0.368907004595       -1.345199942589       -0.225811004639
 3   1          1.039199948311       -0.103326998651       -0.421137988567
 4   1          1.492349982262        0.102107003331       -1.358880043030
 5   1         -0.698880016804        0.102599002421        1.445199966431
 6   1         -0.709255993366       -1.167119979858       -0.460206001997
 7   1         -0.222370997071        1.178380012512        1.227200031281
 8   1         -0.646255016327        1.563189983368        0.267796009779
 9   1         -1.322250008583        1.030650019646        1.032999992371
10   1          2.073549985886       -0.034424401820       -0.173987999558
11   1         -1.158409953117       -0.153077006340       -0.356667995453
12   1         -0.679889023304       -0.295634001493       -1.327970027924
13   1          0.682699024677       -1.509670019150        0.820285975933
14   1          0.014096999541       -1.181079983711       -1.273049950600
15   1          0.421474993229       -0.193395003676       -1.497560024261
16   1         -1.502329945564       -1.053320050240        0.271694004536
17   1         -1.511190056801       -0.019822500646        0.685160994530
18   1         -0.784592986107        1.575469970703       -0.850737988949
19   1         -1.424769997597        0.883751988411       -0.107316002250
20   1          1.424860000610       -0.957471013069        0.132354006171
21   1         -1.102519989014       -0.924425005913        1.289229989052
22   1          0.810073971748        1.235610008240        0.777691006660
23   1          1.116680026054       -0.611937999725        1.317989945412
24   1          0.603401005268        0.726980984211       -0.979008018970
25   1         -0.547975003719       -0.532703995705        0.441121995449
26   1          1.071030020714       -0.979131996632       -1.008870005608
27   1         -0.411478012800       -1.571769952774        0.574055016041
28   1          0.280555993319        1.508399963379       -0.295053005219
29   1         -1.316930055618        0.611693024635       -1.182090044022
30   1          0.359140008688        0.254983991385        1.180160045624
31   1         -0.287458002567        0.704335987568       -1.644279956818
32   1         -0.002454849891       -0.795844018459        1.355540037155
33   1          1.349079966545        0.949284970760       -0.204278007150
34   1          0.001132479985       -0.348677992821       -0.497669011354
35   1         -0.415013998747        0.621810019016       -0.577829003334
36   1         -0.582919001579        0.505055010319        0.460243999958
37   1          0.390089988708        0.519711971283        0.113789997995
38   1          0.504608988762       -0.504374980927        0.436522006989
