 #

 38 atoms
 1 atom types

    -11.5579         11.5356     xlo xhi
    -11.7968         11.5932     ylo yhi
    -11.7451         11.7004     zlo zhi
  0.0 0.0 0.0 xy xz yz


  Atoms

 1   1          0.505563020706        0.716342985630        1.391749978065
 2   1         -0.103656999767       -1.420150041580       -0.557148993015
 3   1          1.338690042496        0.426586985588        0.746132016182
 4   1          1.481009960175       -0.402502000332       -0.350421994925
 5   1         -0.279190987349       -0.011520699598        1.623389959335
 6   1         -0.803623020649       -0.623488008976       -0.809751987457
 7   1         -0.246756002307        1.472970008850        1.038349986076
 8   1         -0.420112997293        1.322700023651       -0.065472103655
 9   1         -1.262730002403        1.593199968338        0.599081993103
10   1          1.183920025826       -0.171200007200        1.700389981270
11   1         -1.557880043983       -0.442272007465       -0.064492098987
12   1         -0.871864020824        0.015751199797       -1.709609985352
13   1          1.535549998283       -0.643168985844        0.728963017464
14   1         -0.630899012089        1.077729940414       -1.208140015602
15   1          0.875585973263       -0.541926980019       -1.745149970055
16   1         -0.946579992771       -1.323879957199        0.239739000797
17   1         -1.034180045128       -0.281057000160        0.868450999260
18   1         -1.429999947548        1.397009968758       -0.499473989010
19   1         -1.211930036545        0.569918990135        0.198978006840
20   1          0.986190974712       -1.292209982872       -0.918516993523
21   1         -0.291725009680       -1.017850041389        1.136219978333
22   1          0.592537999153        1.192980051041        0.384288996458
23   1          0.776208996773       -1.297960042953        1.187739968300
24   1          1.118020057678        0.290233999491       -1.083420038223
25   1         -0.257340013981       -0.520958006382        0.139644995332
26   1         -0.171985000372       -0.872237980366       -1.665729999542
27   1          0.052306700498       -1.796779990196        0.463479995728
28   1          0.416584998369        1.047330021858       -0.715444982052
29   1         -1.425770044327        0.340276002884       -0.841539978981
30   1          0.489086002111       -0.286668986082        0.898630023003
31   1          0.134038999677        0.321667999029       -1.520699977875
32   1         -1.034340023994        0.741970002651        1.289139986038
33   1          1.455590009689        0.887327015400       -0.244270995259
34   1          0.319444000721       -0.456371009350       -0.799037992954
35   1         -0.380207985640        0.323078006506       -0.496477007866
36   1         -0.220925003290        0.464993000031        0.600138008595
37   1          0.621105015278        0.197038993239       -0.042699500918
38   1          0.700268983841       -0.996897995472        0.103003002703
