 #

 38 atoms
 1 atom types

    -11.3414         11.7551     xlo xhi
    -11.6341         11.6759     ylo yhi
    -11.6467         11.9348     zlo zhi
  0.0 0.0 0.0 xy xz yz


  Atoms

 1   1          1.743420004845        0.147081002593        0.364403992891
 2   1          0.221241995692       -1.634119987488       -0.780498027802
 3   1          1.377889990807       -0.142537996173       -0.615345001221
 4   1          0.887057006359       -0.287748992443       -1.623190045357
 5   1         -0.703939020634        0.175135001540        1.586799979210
 6   1         -0.656095981598       -1.000049948692       -0.691640973091
 7   1         -0.351052999496        1.235389947891        1.505489945412
 8   1         -0.634229004383        1.637760043144        0.502328991890
 9   1         -1.301890015602        0.941878020763        1.053099989891
10   1          0.953157007694        0.519894003868        1.039739966393
11   1         -1.341449975967       -0.187499001622       -0.442434996367
12   1         -1.087460041046       -0.409835010767       -1.498759984970
13   1          1.172209978104       -0.595865011215        0.916886985302
14   1         -0.066384099424       -0.969168007374       -1.646679997444
15   1         -0.150014996529        0.126403003931       -1.533460021019
16   1         -1.274340033531       -1.080690026283        0.222068995237
17   1         -1.170689940453       -0.059856899083        0.627583980560
18   1         -0.864781022072        1.675899982452       -0.618435025215
19   1         -1.158619999886        0.821448028088       -0.024614600465
20   1          1.755110025406       -0.936752021313        0.030913800001
21   1         -0.708997011185       -0.906367003918        1.167940020561
22   1          0.437175989151        1.437409996986        0.774398982525
23   1          0.310860991478       -1.329779982567        1.066849946976
24   1          0.622928023338        0.553210973740       -0.886602997780
25   1         -0.291794985533       -0.546489000320        0.220252007246
26   1          1.187989950180       -1.157369971275       -0.941653013229
27   1         -0.309154003859       -1.625229954720        0.197366997600
28   1          0.064837902784        1.220849990845       -0.223582997918
29   1         -1.100499987602        0.662674009800       -1.136620044708
30   1          0.181558996439       -0.253560006618        1.139080047607
31   1         -0.152118995786        1.197999954224       -1.304659962654
32   1          0.316801011562        0.484185993671        1.934780001640
33   1          1.121739983559        0.986581981182        0.007695420180
34   1          0.313300997019       -0.511105000973       -0.743809998035
35   1         -0.350445002317        0.267262011766       -0.465294986963
36   1         -0.264595985413        0.573958992958        0.608538985252
37   1          0.600072026253        0.047449298203        0.137511998415
38   1          0.671199977398       -1.078449964523        0.073545500636
