 #

 38 atoms
 1 atom types

    -11.6765         11.5835     xlo xhi
    -11.6819         11.6737     ylo yhi
    -11.8122         11.7864     zlo zhi
  0.0 0.0 0.0 xy xz yz


  Atoms

 1   1          1.583549976349        0.436935991049        0.664403975010
 2   1          0.441697001457       -1.629179954529       -0.468380987644
 3   1          1.439440011978       -0.113957002759       -0.253331989050
 4   1          0.870001971722        0.330630987883       -1.068969964981
 5   1         -1.039080023766        0.183734998107        1.686769962311
 6   1         -0.592598974705       -1.182629942894       -0.488510012627
 7   1         -0.240871995687        1.673730015755        0.998781025410
 8   1         -0.963669002056        1.470309972763        0.169282004237
 9   1         -1.220700025558        1.103029966354        1.145179986954
10   1          1.460919976234       -0.690270006657        0.748731970787
11   1         -1.215389966965       -0.289896011353       -0.447589993477
12   1         -0.775794982910       -0.415325999260       -1.464730024338
13   1          0.916858971119       -1.681910037994        0.550557971001
14   1         -0.002406779910       -1.236310005188       -1.403399944305
15   1          0.314505010843       -0.276764988899       -1.812199950218
16   1         -1.225939989090       -1.001909971237        0.401268988848
17   1         -1.253440022469        0.105301000178        0.610148012638
18   1         -0.628720998764        1.467470049858       -0.885650992393
19   1         -1.676499962807        0.717890024185       -0.181589007378
20   1          1.543609976768       -1.237030029297       -0.230792000890
21   1         -0.595863997936       -0.713208973408        1.251449942589
22   1          0.708714008331        1.080899953842        0.801600992680
23   1          0.473179012537       -0.987002015114        1.274530053139
24   1          0.505734026432        1.363280057907       -1.023650050163
25   1         -0.342970997095       -0.348385989666        0.275534003973
26   1          0.938705980778       -0.775574028492       -1.012570023537
27   1         -0.161648005247       -1.412799954414        0.482510000467
28   1          0.096543699503        1.392040014267       -0.027345299721
29   1         -1.255300045013        0.556881010532       -1.178699970245
30   1          0.609422028065       -0.007003779989        0.892856001854
31   1         -0.180223003030        0.564996004105       -1.322110056877
32   1          0.033418498933        0.015502899885        1.786399960518
33   1          1.245040059090        1.053429961205       -0.227212995291
34   1          0.001069679973       -0.322477012873       -0.739274024963
35   1         -0.581076979637        0.552685022354       -0.288828998804
36   1         -0.294943988323        0.608682990074        0.778631985188
37   1          0.448991000652        0.371311008930       -0.068589299917
38   1          0.615745007992       -0.727126002312        0.074803300202
