 #

 38 atoms
 1 atom types

    -11.3531         11.5665     xlo xhi
    -11.6335         11.7096     ylo yhi
    -11.6468         11.9524     zlo zhi
  0.0 0.0 0.0 xy xz yz


  Atoms

 1   1          1.346320033073       -0.644207000732        1.048429965973
 2   1          0.323520004749       -1.633470058441       -0.583851993084
 3   1          1.324720025063        0.413210004568        0.801733970642
 4   1          1.173750042915       -0.053530599922       -0.977849006653
 5   1         -0.464769989252        0.309127986431        1.511430025101
 6   1         -0.685656011105       -1.175770044327       -0.571350991726
 7   1         -0.205531001091        1.396909952164        1.223930001259
 8   1         -0.824298024178        1.709619998932        0.349788010120
 9   1         -1.222970008850        0.991840004921        1.070639967918
10   1          0.298052012920       -0.388662993908        1.952440023422
11   1         -1.286479949951       -0.273593008518       -0.367199987173
12   1         -0.741371989250       -0.359661996365       -1.330559968948
13   1          1.566449999809       -0.283461987972        0.011497999541
14   1         -0.159797996283       -1.268509984016       -1.535969972610
15   1          0.226099997759        0.048661399633       -1.646839976311
16   1         -1.229699969292       -1.082550048828        0.394704014063
17   1         -1.188269972801       -0.034210700542        0.717782020569
18   1         -1.021600008011        1.542799949646       -0.769941985607
19   1         -1.255910038948        0.770223975182       -0.034665301442
20   1          1.287439942360       -1.107630014420       -0.671446025372
21   1         -0.513360023499       -0.753310978413        1.196699976921
22   1          0.619827985764        1.162070035934        0.514346003532
23   1          0.455462992191       -1.237480044365        1.223230004311
24   1          0.584478974342        0.839271008968       -0.984745979309
25   1         -0.339363992214       -0.436816006899        0.156536996365
26   1          0.848315000534       -0.872623980045       -1.644629955292
27   1         -0.215305000544       -1.504469990730        0.387145996094
28   1         -0.060176201165        1.338449954987       -0.307579994202
29   1         -1.353139996529        0.539434015751       -1.115980029106
30   1          0.364870995283       -0.139917001128        0.914215028286
31   1         -0.394852995872        0.961405992508       -1.483299970627
32   1          0.572713017464        0.694860994816        1.562800049782
33   1          1.425310015678        0.816513001919       -0.245104998350
34   1          0.224994003773       -0.566421985626       -0.763616979122
35   1         -0.383322000504        0.346832007170       -0.595425009727
36   1         -0.318576008081        0.609776973724        0.476215988398
37   1          0.558489978313        0.207857996225       -0.072433702648
38   1          0.663628995419       -0.882556974888        0.188922002912
