 #

 38 atoms
 1 atom types

    -11.5764         12.0836     xlo xhi
    -11.5684         11.8339     ylo yhi
    -11.7537         11.4681     zlo zhi
  0.0 0.0 0.0 xy xz yz


  Atoms

 1   1          1.203140020370        0.344478011131        0.653086006641
 2   1          0.387661010027       -1.376180052757       -0.372325003147
 3   1          1.222309947014       -0.047459501773       -0.377943992615
 4   1          2.083590030670       -0.582111001015       -0.795180976391
 5   1         -0.786238014698        0.283075004816        1.468050003052
 6   1         -0.644029021263       -0.950118005276       -0.460175991058
 7   1         -0.341805994511        1.294710040092        1.389189958572
 8   1         -0.464704006910        1.833930015564        0.374514013529
 9   1         -1.436400055885        1.092079997063        1.039759993553
10   1          2.060770034790       -0.262674987316        0.293888986111
11   1         -1.525910019875       -0.287375003099       -0.411056995392
12   1         -0.744304001331       -0.299961000681       -1.346439957619
13   1          0.765073001385       -1.568420052528        0.687560021877
14   1         -0.024324599653       -1.156919956207       -1.380460023880
15   1          0.293305993080       -0.147469997406       -1.753679990768
16   1         -1.354460000992       -1.058699965477        0.360002994537
17   1         -1.485229969025       -0.013149900362        0.695533990860
18   1         -0.865926980972        1.369279980659       -0.577031016350
19   1         -1.576410055161        0.766380012035       -0.040572699159
20   1          1.413509964943       -1.087839961052       -0.067882001400
21   1         -0.880048990250       -0.796357989311        1.308179974556
22   1          0.479925990105        1.282870054245        0.646358013153
23   1          1.337049961090       -0.685020029545        1.036020040512
24   1          0.682510018349        0.604937970638       -1.042940020561
25   1         -0.480836987495       -0.294555008411        0.418278008699
26   1          1.037029981613       -0.840407013893       -1.126649975777
27   1         -0.289765000343       -1.352409958839        0.509736001492
28   1          0.196734994650        1.409229993820       -0.447306007147
29   1         -1.430719971657        0.572183012962       -1.144459962845
30   1          0.212184995413        0.280928999186        1.071130037308
31   1         -0.335164010525        0.756618022919       -1.380370020866
32   1          0.223693996668       -0.785884022713        1.316840052605
33   1          1.223629951477        1.058200001717       -0.183027997613
34   1          0.193090006709       -0.332412004471       -0.694459021091
35   1         -0.635266005993        0.301281005144       -0.460009008646
36   1         -0.583893001080        0.775996029377        0.475657999516
37   1          0.322766989470        0.446873992682        0.001672860002
38   1          0.547434985638       -0.547621011734        0.316516011953
