 #

 38 atoms
 1 atom types

    -11.6965         11.6479     xlo xhi
    -11.7286         11.8042     ylo yhi
    -11.8780         11.8743     zlo zhi
  0.0 0.0 0.0 xy xz yz


  Atoms

 1   1          1.222419977188       -0.345093011856        1.457479953766
 2   1          0.161137998104       -1.683459997177       -0.751387000084
 3   1          1.228229999542        0.302219003439        0.547957003117
 4   1          1.322749972343       -0.165092006326       -0.436105996370
 5   1         -0.558180987835        0.104114003479        1.426290035248
 6   1         -0.762462973595       -1.097129940987       -0.580260992050
 7   1         -0.111973002553        1.804180026054        0.926370978355
 8   1         -0.977590024471        1.473950028419        0.329201996326
 9   1         -0.900057971478        1.150910019875        1.384930014610
10   1          0.230352997780       -0.504703998566        1.874279975891
11   1         -1.383999943733       -0.159114003181       -0.445001989603
12   1         -1.136680006981       -0.514744997025       -1.470489978790
13   1          1.267840027809       -0.784493982792        0.464533001184
14   1         -0.137906000018       -0.970109999180       -1.544450044632
15   1         -0.262825012207        0.109292000532       -1.878000020981
16   1         -0.218950003386       -1.478530049324        0.291074991226
17   1         -1.261790037155        0.411754012108        0.603802978992
18   1         -0.874252021313        1.566689968109       -0.779542982578
19   1         -1.696499943733        0.914682984352       -0.340218007565
20   1          1.647940039635       -1.235970020294       -0.453473985195
21   1         -0.517000019550       -0.937756001949        1.170310020447
22   1          0.796944022179        1.269600033760        0.626352012157
23   1          0.539650022984       -1.284350037575        1.109940052032
24   1          0.671716988087        0.119451999664       -1.239779949188
25   1         -0.548072993755       -0.345324993134        0.225679993629
26   1          0.883279025555       -0.941075980663       -1.163120031357
27   1          0.838006019592       -1.728579998016        0.116761997342
28   1          0.059766501188        1.440870046616       -0.148815006018
29   1         -1.083299994469        0.564686000347       -1.252879977226
30   1          0.332823991776       -0.269778996706        0.792688012123
31   1         -0.030276000500        0.907171010971       -1.096500039101
32   1          0.532306015491        0.547613024712        1.473350048065
33   1          1.103899955750        0.993530988693       -0.452639013529
34   1         -0.299524009228       -0.170233994722       -0.839349985123
35   1         -0.662039995193        0.632683992386       -0.262299001217
36   1         -0.173149004579        0.737475991249        0.671060979366
37   1          0.360942989588        0.316208988428       -0.145384997129
38   1          0.396531999111       -0.751536011696       -0.212348997593
