 #

 38 atoms
 1 atom types

    -11.7062         11.5017     xlo xhi
    -11.9025         11.7151     ylo yhi
    -11.5897         11.6082     zlo zhi
  0.0 0.0 0.0 xy xz yz


  Atoms

 1   1          0.378410995007        0.249400004745        1.608240008354
 2   1          1.446320056915       -0.948984026909       -0.658500015736
 3   1          1.392230033875        0.158063992858        1.187870025635
 4   1         -0.257465988398        1.402009963989       -0.991316020489
 5   1          1.260609984398        0.488133013248       -0.676603972912
 6   1         -0.660283982754       -1.193940043449       -0.792913019657
 7   1         -1.346690058708       -0.351181000471        1.026180028915
 8   1          0.641143977642        1.715149998665        0.063574001193
 9   1         -1.087049961090        1.085100054741        0.706227004528
10   1          0.136283993721       -1.547690033913        0.932528018951
11   1         -1.569599986076        0.042836699635       -0.840726017952
12   1         -0.798282980919        0.569947004318       -1.458989977837
13   1         -0.691201984882        0.423566013575        1.472390055656
14   1         -0.981706023216       -0.508188009262       -1.589740037918
15   1          0.094842202961       -0.651341974735       -1.419469952583
16   1         -0.320351004601       -1.902500033379       -0.011148800142
17   1         -1.706150054932        0.315524011850        0.229848995805
18   1          0.816136002541        1.411100029945       -0.981487989426
19   1         -0.424398005009        1.660069942474        0.068876802921
20   1          1.501719951630       -0.193561002612        0.146718993783
21   1         -0.931963026524       -1.340890049934        0.737273991108
22   1          0.952965974808        1.177520036697        1.373749971390
23   1          0.799811005592       -0.755195975304        1.343829989433
24   1          1.122200012207       -0.268198013306       -1.460279941559
25   1         -1.236400008202       -0.637212991714       -0.046225201339
26   1          0.418035000563       -1.379989981651       -0.655623018742
27   1          0.877354979515       -1.065060019493        0.291285008192
28   1          1.099650025368        0.803394019604        0.353870987892
29   1         -0.952570974827        0.826402008533       -0.380116999149
30   1         -0.274857014418       -0.555727005005        1.187199950218
31   1          0.287983000278        0.441594988108       -1.273159980774
32   1          0.042297501117        0.957913994789        0.804394006729
33   1          0.570007979870       -0.305992990732       -0.483004003763
34   1         -0.477963000536       -0.109272003174       -0.659039020538
35   1          0.169090002775        0.704630017281       -0.235902994871
36   1         -0.590043008327        0.152878001332        0.394634008408
37   1          0.471318006516       -0.046723898500        0.560220003128
38   1         -0.171437993646       -0.823587000370        0.125327005982
