 #

 38 atoms
 1 atom types

    -11.4411         11.4930     xlo xhi
    -11.5111         11.5856     ylo yhi
    -11.9277         12.0786     zlo zhi
  0.0 0.0 0.0 xy xz yz


  Atoms

 1   1          0.432651996613        0.485464006662        2.078550100327
 2   1         -0.315093010664       -1.307890057564       -0.734224021435
 3   1          0.525341987610        1.311339974403        1.392570018768
 4   1          1.429849982262       -0.585165023804       -0.385964006186
 5   1         -0.347763001919       -0.252038985491        1.804090023041
 6   1         -1.277510046959       -1.033139944077       -0.029305899516
 7   1         -0.340360999107        1.421589970589        0.727270007133
 8   1         -0.063173599541        1.585600018501       -0.329517990351
 9   1         -0.534775018692        0.914753973484        1.724730014801
10   1         -0.585600018501       -1.284659981728        1.459630012512
11   1         -1.257339954376        0.063256099820       -0.129185006022
12   1         -1.181010007858       -0.620172977448       -1.050780057907
13   1          1.142379999161        0.380560994148        1.055649995804
14   1         -0.785942971706        0.218789994717       -1.927690029144
15   1         -0.217287003994       -0.687115013599       -1.634089946747
16   1          1.272079944611       -0.684014976025        0.722911000252
17   1         -0.889223992825       -0.411734014750        0.845579028130
18   1         -0.448864996433        1.121610045433       -1.252480030060
19   1         -1.092519998550        0.648995995522        0.792822003365
20   1          0.883662998676       -0.617955029011       -1.820330023766
21   1         -0.392910003662       -1.511139988899        0.387302011251
22   1          0.645494997501        1.061239957809        0.340972989798
23   1          0.803930997849       -0.460040986538        1.716189980507
24   1          1.314720034599        0.180769994855       -1.181239962578
25   1         -0.322858005762       -0.503140985966       -0.048507999629
26   1         -1.441079974174        0.531872987747       -1.105299949646
27   1          0.751866996288       -1.419319987297       -1.069370031357
28   1          0.493115991354        0.691946029663       -0.678816020489
29   1         -1.102659940720        1.177880048752       -0.265298992395
30   1          0.165585994720       -0.711763978004        0.897741973400
31   1          0.294851988554        0.315629005432       -1.680430054665
32   1          0.056800898165        0.363382011652        1.017609953880
33   1          1.492959976196        0.507082998753       -0.116333000362
34   1          0.455233991146       -0.411404997110       -0.826532006264
35   1         -0.452674001455        0.130493000150       -0.903451979160
36   1         -0.290508985519        0.569809019566        0.055209800601
37   1          0.614010989666       -0.030039299279        0.166933000088
38   1          0.564604997635       -1.151329994202       -0.016907699406
