 #

 38 atoms
 1 atom types

    -11.6909         11.7347     xlo xhi
    -11.7806         11.6919     ylo yhi
    -12.1439         11.7345     zlo zhi
  0.0 0.0 0.0 xy xz yz


  Atoms

 1   1          0.236505001783        0.440068006516        1.734480023384
 2   1          1.380190014839       -0.797872006893       -0.921105027199
 3   1          1.171769976616       -0.135509997606        1.375319957733
 4   1         -0.164179995656        1.400789976120       -1.009690046310
 5   1          1.430140018463        0.315129995346       -0.921373009682
 6   1         -0.459843009710       -1.174280047417       -0.786303997040
 7   1         -1.352370023727       -0.403319001198        0.992003023624
 8   1          0.648702979088        1.608299970627        0.288031011820
 9   1         -1.191259980202        1.127290010452        0.584553003311
10   1          0.294147014618       -1.709229946136        0.624732971191
11   1         -1.434049963951       -0.073054000735       -0.893687009811
12   1         -0.684355020523        0.543862998486       -1.472450017929
13   1         -0.886663973331        0.521300017834        1.447739958763
14   1         -0.727252006531       -0.536347985268       -1.614910006523
15   1          0.346349000931       -0.640157997608       -1.293589949608
16   1         -0.649326026440       -1.780599951744        0.062894202769
17   1         -1.690860033035        0.234351992607        0.141574993730
18   1          0.909005999565        1.299589991570       -0.744081974030
19   1         -0.423518985510        1.691869974136        0.022202000022
20   1          1.734730005264       -0.274497002363       -0.009454240091
21   1         -0.692938029766       -1.324650049210        1.033159971237
22   1          0.981814980507        0.958966016769        1.130139946938
23   1          0.504505991936       -1.039590001106        1.478340029716
24   1          0.058506399393        0.030281299725       -2.143899917603
25   1         -1.141190052032       -0.725817978382       -0.038749098778
26   1          0.553165972233       -1.318699955940       -0.400662988424
27   1          0.961987972260       -0.830407023430        0.511645019054
28   1          1.189409971237        0.657944977283        0.103965997696
29   1         -0.941443979740        0.823961019516       -0.444559007883
30   1         -0.302367985249       -0.369848012924        1.283020019531
31   1          0.375481992960        0.448444008827       -1.184249997139
32   1         -0.110719002783        1.050009965897        0.869777023792
33   1          0.657190978527       -0.208029001951       -0.336598008871
34   1         -0.382559001446       -0.111974999309       -0.618744015694
35   1          0.123692996800        0.749643027782       -0.168577998877
36   1         -0.633562982082        0.190797999501        0.400103002787
37   1          0.421214014292        0.120201997459        0.663055002689
38   1         -0.110062003136       -0.758913993835        0.255939990282
