 #

 38 atoms
 1 atom types

    -11.4602         11.7629     xlo xhi
    -11.5360         11.6642     ylo yhi
    -11.6961         11.9164     zlo zhi
  0.0 0.0 0.0 xy xz yz


  Atoms

 1   1          1.291589975357       -0.507184028625        1.072759985924
 2   1          0.297500014305       -1.535959959030       -0.587906002998
 3   1          1.396370053291        0.377665013075        0.400063991547
 4   1          1.296620011330        0.109442003071       -0.739412009716
 5   1         -0.510680019855       -0.010363399982        1.362010002136
 6   1         -0.736765980721       -1.180109977722       -0.676989018917
 7   1          0.025273900479        0.917164027691        1.494519948959
 8   1         -0.796831011772        1.664180040359        0.349222987890
 9   1         -1.146739959717        0.914004027843        1.159330010414
10   1          0.459181994200       -0.121269002557        1.916370034218
11   1         -1.251610040665       -0.254184991121       -0.400045007467
12   1         -0.762345016003       -0.287434995174       -1.390910029411
13   1          1.762889981270       -0.564790010452        0.015572300181
14   1         -0.043095599860       -1.139879941940       -1.561699986458
15   1          0.309722989798       -0.101714000106       -1.696110010147
16   1         -1.343090057373       -1.127529978752        0.229846999049
17   1         -1.351140022278       -0.087442196906        0.682437002659
18   1         -0.905085027218        1.454280018806       -0.780912995338
19   1         -1.360679984093        0.778850972652       -0.003970299847
20   1          1.332059979439       -1.528650045395       -0.254938989878
21   1         -0.853493988514       -1.010830044746        1.176730036736
22   1          0.632655978203        1.154209971428        0.619901001453
23   1          0.234133005142       -0.911306977272        1.142650008202
24   1          0.471619009972        0.795705974102       -1.120620012283
25   1         -0.381426006556       -0.386824995279        0.282368004322
26   1          0.983190000057       -0.862070024014       -1.105970025063
27   1         -0.269621998072       -1.453430056572        0.325347989798
28   1          0.066924996674        1.376080036163       -0.284442991018
29   1         -1.460170030594        0.554540991783       -1.115859985352
30   1          0.432848006487        0.098504699767        0.865913987160
31   1         -0.493377000093        0.765133023262       -1.644479990005
32   1          1.157750010490        0.623058974743        1.464509963989
33   1          1.175160050392        1.164569973946       -0.350535005331
34   1          0.062581799924       -0.456550002098       -0.704899013042
35   1         -0.484694004059        0.464691996574       -0.601922988892
36   1         -0.375670999289        0.673040986061        0.464673995972
37   1          0.459192991257        0.351806998253       -0.139258995652
38   1          0.679233014584       -0.709388971329        0.136666998267
