 #

 38 atoms
 1 atom types

    -11.6945         11.8047     xlo xhi
    -11.7291         11.5262     ylo yhi
    -11.9160         11.8225     zlo zhi
  0.0 0.0 0.0 xy xz yz


  Atoms

 1   1          1.126889944077       -0.245908007026        1.343899965286
 2   1          0.369233995676       -1.430989980698       -1.416679978371
 3   1          1.127220034599        0.489107012749        0.535946011543
 4   1          1.804669976234       -0.178614005446       -0.507028996944
 5   1          0.152719005942       -0.385996997356        1.822530031204
 6   1         -1.144670009613       -0.752717971802        0.171206995845
 7   1         -0.500311970711        1.234330058098        1.192370057106
 8   1         -0.633149027824        1.491070032120        0.163352996111
 9   1         -0.741060018539        0.267251998186        1.660140037537
10   1         -0.720669984818        0.213857993484        0.583899021149
11   1         -1.694450020790        0.181481003761       -0.001054679975
12   1         -0.553552985191       -1.246970057487       -0.706405997276
13   1          1.244740009308       -0.685903012753        0.332825988531
14   1         -1.169589996338       -0.333070009947       -0.882968008518
15   1          0.870260000229       -1.729140043259        0.245619997382
16   1          0.553719997406       -1.192549943924        1.164119958878
17   1         -1.607210040092       -0.171436995268        1.058089971542
18   1         -0.482843995094        1.526229977608       -0.927214026451
19   1         -1.476009964943        0.951273024082        0.770972013474
20   1          1.021499991417       -0.511641979218       -1.280339956284
21   1         -0.179701998830       -1.279710054398        0.337841987610
22   1          0.509854972363        1.495659947395        0.712118029594
23   1         -0.623839974403       -0.718787014484        1.148120045662
24   1          1.259189963341        0.559523999691       -1.177270054817
25   1         -0.280557990074       -0.272913992405       -0.261720985174
26   1         -0.708393990993        0.453233987093       -1.547209978104
27   1          1.517330050468       -1.257130026817       -0.594272971153
28   1          0.160359993577        0.647212028503       -0.939612984657
29   1         -1.639080047607        1.293259978294       -0.279769986868
30   1          0.276381999254       -0.303422987461        0.627205014229
31   1          0.468968003988        0.270282000303       -1.916020035744
32   1          0.305694997311        0.543599009514        1.267629981041
33   1          0.932133018970        1.172870039940       -0.320306003094
34   1         -0.078862801194       -0.424075007439       -1.285030007362
35   1         -0.818117022514        0.615100979805       -0.454528987408
36   1          0.098646603525        0.686691999435        0.156071007252
37   1          0.765956997871        0.020180800930       -0.353294998407
38   1          0.486602991819       -0.991226017475       -0.443237990141
