 #

 38 atoms
 1 atom types

    -11.7195         11.4449     xlo xhi
    -11.9258         11.5086     ylo yhi
    -11.9146         11.8453     zlo zhi
  0.0 0.0 0.0 xy xz yz


  Atoms

 1   1          1.322610020638       -0.086879998446        1.539800047874
 2   1          0.455184012651       -1.650439977646       -0.968572020531
 3   1          1.384809970856        0.376239985228        0.508158981800
 4   1          1.304600000381       -0.159128993750       -0.447079986334
 5   1         -0.902206003666        0.349705010653        1.691939949989
 6   1         -0.520419001579       -1.182880043983       -0.560643970966
 7   1         -0.272249013186        1.283079981804        1.508249998093
 8   1         -0.292930006981        1.442729949951        0.371782004833
 9   1         -1.174919962883        1.046919941902        0.867031991482
10   1          0.174685001373        0.072625197470        1.845270037651
11   1         -1.224169969559       -0.325733006001       -0.425891011953
12   1         -0.955703973770       -0.236226007342       -1.504019975662
13   1          1.386739969254       -0.783746004105        0.473091989756
14   1         -0.210556998849       -1.042039990425       -1.595970034599
15   1          0.069268502295       -0.034017898142       -1.914630055428
16   1         -0.801365971565       -1.341079950333        0.506843984127
17   1         -1.233369946480       -0.053978201002        0.676555991173
18   1         -0.898962974548        1.508620023727       -0.579755008221
19   1         -1.719480037689        0.662280976772        0.009290710092
20   1          1.444880008698       -1.256530046463       -0.581224977970
21   1         -0.464599996805       -0.587653994560        1.270009994507
22   1          0.788968026638        1.361549973488        0.361481994390
23   1          0.286971002817       -1.267449975014        0.819317996502
24   1          0.675172984600        0.451272010803       -1.142670035362
25   1         -0.338200986385       -0.419124990702        0.212212994695
26   1          0.775817990303       -0.645498991013       -1.271919965744
27   1          0.043565098196       -1.925760030746        0.004613429774
28   1          0.225684002042        1.294450044632       -0.581746995449
29   1         -1.436929941177        0.617771983147       -1.021720051765
30   1          0.533156991005       -0.238231003284        0.830600976944
31   1         -0.395792990923        0.738695025444       -1.272729992867
32   1          0.695590972900        0.794242978096        1.254819989204
33   1          1.346400022507        0.944123029709       -0.456777989864
34   1         -0.119767002761       -0.209911003709       -0.816251993179
35   1         -0.635734021664        0.549866974354       -0.189490005374
36   1         -0.256494998932        0.454331010580        0.824967980385
37   1          0.428878009319        0.367352008820       -0.050568901002
38   1          0.510861992836       -0.869548022747       -0.194376006722
