 #

 38 atoms
 1 atom types

    -11.9254         11.5723     xlo xhi
    -11.7067         11.5136     ylo yhi
    -11.7590         11.6488     zlo zhi
  0.0 0.0 0.0 xy xz yz


  Atoms

 1   1          1.201380014420       -0.057940099388        1.538069963455
 2   1         -0.207453995943       -1.430899977684       -1.263200044632
 3   1          1.287389993668        0.496050000191        0.585752010345
 4   1          1.514950037003       -0.106468997896       -0.315521001816
 5   1          0.070050597191       -0.209253996611        1.596519947052
 6   1         -1.192870020866       -0.949752986431        0.264443010092
 7   1         -0.309074997902        1.513589978218        0.977580010891
 8   1         -0.509123027325        1.173879981041       -0.087244398892
 9   1         -0.572242975235        0.673408985138        1.648790001869
10   1         -0.886793971062       -0.214888006449        1.024500012398
11   1         -1.169460058212        0.148800998926       -0.017967399210
12   1         -0.876806020737       -0.679333984852       -0.784765005112
13   1          0.790729999542       -1.070240020752        1.439129948616
14   1         -0.764482975006       -0.165992006660       -1.758960008621
15   1          0.735902011395       -1.706689953804       -0.729030013084
16   1          0.742327988148       -1.437139987946        0.408356994390
17   1         -1.925420045853       -0.015110500157        0.736931979656
18   1         -0.800450026989        1.208369970322       -1.164870023727
19   1         -1.206439971924        0.883494973183        0.761877000332
20   1          1.243669986725       -0.764585971832       -1.234619975090
21   1         -0.223903000355       -1.442149996758       -0.164591997862
22   1          0.535458981991        1.287179946899        0.318174004555
23   1         -0.199111998081       -1.077690005302        0.904402971268
24   1          0.945420980453        0.325174987316       -1.173499941826
25   1         -0.282128006220       -0.401776999235        0.064534001052
26   1         -1.456519961357        0.292585998774       -1.054020047188
27   1          1.572329998016       -0.680873990059        0.644528985023
28   1          0.308176994324        1.194350004196       -0.815370023251
29   1         -1.571429967880        1.118239998817       -0.312229990959
30   1          0.576681971550       -0.319391995668        0.666181981564
31   1          0.013761200011        0.617995023727       -1.712859988213
32   1          0.532916009426        0.805182993412        1.354439973831
33   1          1.345649957657        1.009580016136       -0.400429993868
34   1          0.177532002330       -0.426162987947       -1.289860010147
35   1         -0.392271012068        0.306127995253       -0.752215981483
36   1         -0.177432999015        0.476437002420        0.639343976974
37   1          0.505711019039        0.335245013237       -0.183140993118
38   1          0.623377978802       -0.709348976612       -0.359162986279
