 #

 38 atoms
 1 atom types

    -11.9112         11.7177     xlo xhi
    -11.5103         11.5343     ylo yhi
    -11.4863         11.6977     zlo zhi
  0.0 0.0 0.0 xy xz yz


  Atoms

 1   1         -0.676548004150        0.273990005255        1.629709959030
 2   1          1.670349955559       -0.501163005829        0.464226990938
 3   1          1.122390031815        0.381161004305        0.827907025814
 4   1         -0.317959010601        0.964302003384       -0.012189400382
 5   1          1.076239943504        0.520452022552       -1.081230044365
 6   1         -1.622750043869       -0.519406020641        0.183642998338
 7   1         -1.184939980507       -0.611763000488        1.210229992867
 8   1          0.429176002741        1.239400029182        0.736631989479
 9   1         -0.617853999138        1.210630059242        1.031409978867
10   1          1.162220001221       -1.399940013885        0.048811700195
11   1         -1.392089962959       -0.742675006390       -0.864122986794
12   1          0.539883017540       -0.346653014421       -1.486330032349
13   1         -1.123729944229        0.352149993181        0.599062979221
14   1         -0.567103981972       -0.291848003864       -1.426849961281
15   1          0.071695499122       -0.453009009361       -0.522372007370
16   1         -0.452883005142       -1.297369956970       -0.977294981480
17   1         -1.356809973717        1.077880024910       -0.250366002321
18   1         -0.016627199948        0.547728002071       -0.996167004108
19   1         -0.513768017292        1.534299969673       -0.910359025002
20   1          1.158619999886       -0.450363010168       -0.530847012997
21   1         -0.554706990719       -1.510280013084        0.934280991554
22   1          0.440129011869        0.365175008774        1.697659969330
23   1         -0.056834500283       -0.617588996887        1.359580039978
24   1          0.570312976837        1.396190047264       -0.520702004433
25   1         -1.911239981651        0.203153997660       -0.618063986301
26   1         -1.060119986534       -1.443660020828       -0.061493799090
27   1          1.050510048866       -0.547887980938        1.415899991989
28   1          1.717710018158        0.409563004971       -0.169218003750
29   1         -1.113010048866        0.672048985958       -1.278630018234
30   1          0.058070901781       -1.435400009155        0.003284819890
31   1          1.676090002060        1.378219962120       -0.779335021973
32   1          1.380519986153        1.333580017090        0.269876003265
33   1          0.612294018269        0.404397994280       -0.105461001396
34   1         -0.534008026123       -0.585846006870        0.352726012468
35   1         -0.840649008751        0.094502396882       -0.410396993160
36   1         -0.039994500577        0.272924989462        0.741995990276
37   1          0.574979007244       -0.555842995644        0.433665990829
38   1          0.642472028732       -1.321050047874       -0.939176976681
