 #

 38 atoms
 1 atom types

    -11.5139         11.5128     xlo xhi
    -11.7610         11.6343     ylo yhi
    -11.6666         11.7747     zlo zhi
  0.0 0.0 0.0 xy xz yz


  Atoms

 1   1          1.217229962349       -0.165200993419        1.491500020027
 2   1          0.522110998631       -1.673580050468       -0.746612012386
 3   1          1.304690003395        0.405131012201        0.541190028191
 4   1          1.457610011101       -0.139385998249       -0.416069000959
 5   1          0.183630004525       -0.376695990562        1.774719953537
 6   1         -1.179340004921       -1.035140037537       -0.222699001431
 7   1         -0.358547985554        1.324759960175        1.086879968643
 8   1         -0.527173995972        1.477589964867        0.010059899651
 9   1         -0.584397971630        0.285472005606        1.389500021935
10   1         -0.572672009468       -0.587691009045        0.650445997715
11   1         -1.271620035172        0.055526200682       -0.049692701548
12   1         -0.382878988981       -1.154139995575       -1.084740042686
13   1          1.406030058861       -0.737560987473        0.576608002186
14   1         -1.145910024643       -0.294676989317       -1.076609969139
15   1          0.906376004219       -1.760969996452        0.295596003532
16   1          0.328462988138       -1.167449951172        1.006340026855
17   1         -1.513910055161       -0.145682007074        0.998744010925
18   1         -0.700322985649        1.634279966354       -1.065269947052
19   1         -1.300140023232        0.911897003651        0.656054973602
20   1          0.759981989861       -0.649296998978       -1.128780007362
21   1         -0.215303003788       -1.473209977150        0.070613600314
22   1          0.495707988739        1.149850010872        0.388366997242
23   1         -0.843478024006       -0.770717978477        1.680809974670
24   1          0.847670018673        0.458806991577       -1.266270041466
25   1         -0.326810985804       -0.383854001760       -0.359872996807
26   1         -1.155650019646        0.715031981468       -1.529829978943
27   1          1.512799978256       -1.233430027962       -0.476211011410
28   1          0.329154014587        1.316619992256       -0.696530997753
29   1         -1.453989982605        1.057960033417       -0.463259011507
30   1          0.412178993225       -0.144988998771        0.726597011089
31   1         -0.066360600293        0.960421979427       -1.666620016098
32   1          0.480803996325        0.678175985813        1.396800041199
33   1          1.331550002098        0.981739997864       -0.393279999495
34   1         -0.122631996870       -0.099804498255       -1.409960031509
35   1         -0.492480009794        0.613511979580       -0.687992990017
36   1         -0.363207012415        0.469269007444        0.364511013031
37   1          0.485897004604        0.290796995163       -0.276320010424
38   1          0.594937980175       -0.793356001377       -0.088719002903
