 #

 38 atoms
 1 atom types

    -11.7018         11.7801     xlo xhi
    -11.7817         11.6834     ylo yhi
    -11.7544         11.7378     zlo zhi
  0.0 0.0 0.0 xy xz yz


  Atoms

 1   1         -0.332074999809       -1.012930035591        1.418540000916
 2   1          1.291389942169       -1.078750014305        0.343760013580
 3   1          0.857383012772        0.494892001152        1.355579972267
 4   1         -1.447540044785        1.017379999161       -0.386218994856
 5   1          1.202250003815       -0.244203999639       -0.379698008299
 6   1          0.061018098146       -1.781700015068       -0.318477004766
 7   1         -0.136242002249        0.837087988853        1.005480051041
 8   1          0.465065002441        1.123620033264       -0.412802010775
 9   1         -1.113459944725        1.226150035858        0.671990990639
10   1         -0.568439006805       -1.249469995499        0.383309006691
11   1         -1.701779961586       -0.070044599473       -0.645093977451
12   1          0.131198003888        0.917080998421       -1.449990034103
13   1         -0.057650499046        0.010987199843        1.737810015678
14   1         -1.040940046310       -0.594025015831       -1.364130020142
15   1         -0.125507995486       -0.110101997852       -1.754410028458
16   1          0.962382972240       -1.277580022812       -0.693750023842
17   1         -0.197283998132        1.683439970016        0.276910007000
18   1          1.454259991646        0.782087028027       -0.069541499019
19   1         -0.523288011551        1.479030013084       -0.760465025902
20   1          1.524919986725       -0.050113800913        0.660452008247
21   1         -0.981482982635       -1.406540036201       -0.612748980522
22   1          0.783571004868        1.325430035591        0.627161026001
23   1          0.397695004940       -1.577749967575        0.739850997925
24   1          0.867130994797       -0.448417991400       -1.416939973831
25   1         -1.363579988480        0.225896000862        0.347602993250
26   1         -0.049251299351       -0.935119986534       -1.016880035400
27   1          0.603628993034       -0.535718023777        1.038699984550
28   1          1.780050039291        0.982913017273        0.973515987396
29   1         -1.057010054588        0.332161009312        1.385980010033
30   1         -1.516849994659       -0.804867982864        0.522077023983
31   1          1.125599980354        0.579756021500       -1.110810041428
32   1         -0.787272989750        0.434253990650       -1.050029993057
33   1         -0.445643991232        0.649182975292       -0.029336700216
34   1          0.297475993633       -0.729650020599        0.004033170175
35   1         -0.708187997341       -0.389310002327       -0.315402001143
36   1         -0.388352990150       -0.192598000169        0.690223991871
37   1          0.532077014446        0.294400990009        0.315663993359
38   1          0.204752996564        0.093121699989       -0.711912989616
