 #

 38 atoms
 1 atom types

    -11.4752         11.6689     xlo xhi
    -11.8532         11.6350     ylo yhi
    -11.6350         11.8973     zlo zhi
  0.0 0.0 0.0 xy xz yz


  Atoms

 1   1          0.979587018490       -0.608455002308        1.361860036850
 2   1          0.508930981159       -1.853240013123       -0.497821003199
 3   1          1.355129957199        0.468946993351        0.538094997406
 4   1          1.399979948997       -0.095524601638       -0.452677011490
 5   1          0.046384301037       -0.383671998978        1.897300004959
 6   1         -1.253700017929       -0.967088997364       -0.116516999900
 7   1         -0.287265002728        1.308179974556        1.113100051880
 8   1         -0.489802986383        1.491070032120        0.028413100168
 9   1         -0.690038979053        0.334125012159        1.456110000610
10   1         -0.309015005827       -0.495287001133        0.863619029522
11   1         -1.411900043488        0.159789994359       -0.212473005056
12   1         -0.396378010511       -1.208279967308       -0.894842028618
13   1          1.668869972229       -0.604425013065        0.478724986315
14   1         -1.051200032234       -0.328765004873       -1.106449961662
15   1          0.853406012058       -1.338850021362        0.445713013411
16   1          0.140828996897       -1.356690049171        1.305259943008
17   1         -1.342280030251       -0.241668999195        0.772423028946
18   1         -0.709331989288        1.635050058365       -1.083629965782
19   1         -1.263489961624        0.890137016773        0.637928009033
20   1          1.074579954147       -0.581520974636       -1.394979953766
21   1         -0.210004001856       -1.338099956512        0.193737998605
22   1          0.526919007301        1.167899966240        0.349922001362
23   1         -0.956305980682       -0.796760022640        1.669620037079
24   1          0.884418010712        0.522674977779       -1.338129997253
25   1         -0.401322007179       -0.345292001963       -0.217978000641
26   1         -1.303390026093        0.719866991043       -1.401139974594
27   1          1.504870057106       -1.213809967041       -0.465790003538
28   1          0.304607003927        1.351500034332       -0.755722999573
29   1         -1.475219964981        1.230049967766       -0.406287997961
30   1          0.608861982822       -0.284256011248        0.420729994774
31   1         -0.164413005114        0.828589975834       -1.634999990463
32   1          0.422484993935        0.415993005037        1.219740033150
33   1          1.314689993858        1.014610052109       -0.430440008640
34   1          0.019372100011       -0.180831998587       -1.240239977837
35   1         -0.551662027836        0.633714973927       -0.643631994724
36   1         -0.306131005287        0.477907985449        0.415749996901
37   1          0.433569014072        0.353953003883       -0.380789011717
38   1          0.525366008282       -0.781530976295       -0.493523985147
