 #

 38 atoms
 1 atom types

    -11.6197         11.4113     xlo xhi
    -11.7056         11.6413     ylo yhi
    -11.9188         11.6891     zlo zhi
  0.0 0.0 0.0 xy xz yz


  Atoms

 1   1          1.386649966240       -0.545817971230        0.897189021111
 2   1          0.490705013275       -1.705600023270       -0.428546011448
 3   1          1.234380006790       -0.166740000248       -0.127287000418
 4   1          1.088909983635        0.261913001537       -1.172160029411
 5   1         -0.836178004742        0.949642002583        1.573510050774
 6   1         -0.420457005501       -1.517740011215        0.193009003997
 7   1          0.279109001160        1.007539987564        1.349760055542
 8   1         -0.501657009125        1.641260027885        0.797047019005
 9   1         -1.349910020828        0.952512979507        0.491084992886
10   1         -0.258644014597       -0.005651469808        1.617149949074
11   1         -0.845741987228       -0.817115008831       -0.565530002117
12   1         -0.581605970860       -0.282335996628       -1.821419954300
13   1          1.411319971085       -1.230059981346       -0.023059900850
14   1         -0.051488600671       -1.126680016518       -1.223829984665
15   1          0.246754005551        0.567269980907       -1.909260034561
16   1         -0.336641997099       -1.081140041351        1.266160011292
17   1         -1.619699954987       -0.070822298527        0.050445400178
18   1         -0.505652010441        1.265290021896       -0.238129004836
19   1         -1.511800050735        0.900286972523       -0.586822986603
20   1          0.967464983463       -0.821998000145       -0.960305988789
21   1         -1.282789945602        0.047854099423        1.136319994926
22   1          1.087080001831        0.560415029526        0.700079977512
23   1          0.653882980347       -0.903344988823        1.667019963264
24   1          0.340272009373        1.070510029793       -0.924363970757
25   1         -0.654015004635       -0.481022000313        0.450017005205
26   1          0.546675026417       -0.486923009157       -1.918789982796
27   1          0.561737000942       -1.314579963684        0.646404981613
28   1          0.447596013546        1.383550047874        0.302195012569
29   1         -1.412600040436       -0.062542900443       -1.108109951019
30   1          0.359937012196       -0.249676004052        0.783402025700
31   1         -0.653730988503        0.743111014366       -1.289549946785
32   1          0.872174978256        0.152155995369        1.689149975777
33   1          1.271550059319        0.943565011024       -0.320634990931
34   1          0.082651503384       -0.055647000670       -1.027979969978
35   1         -0.679606974125        0.224515005946       -0.339309006929
36   1         -0.381094992161        0.546024024487        0.654227018356
37   1          0.344229012728        0.395806014538       -0.095150403678
38   1          0.210243999958       -0.687795996666       -0.183921992779
