 #

 38 atoms
 1 atom types

    -11.6214         11.7207     xlo xhi
    -11.5277         11.5412     ylo yhi
    -11.7086         11.6564     zlo zhi
  0.0 0.0 0.0 xy xz yz


  Atoms

 1   1          1.343860030174        0.187224000692        0.658086001873
 2   1          0.412057012320       -1.405750036240       -0.543437004089
 3   1          1.260010004044       -0.258444994688       -0.339329004288
 4   1          1.374019980431        0.254990011454       -1.297449946404
 5   1         -0.697270989418        0.417021989822        1.656409978867
 6   1         -0.643804013729       -1.109169960022       -0.644845008850
 7   1         -0.011602099985        1.096390008926        1.090039968491
 8   1         -0.861759006977        1.541190028191        0.465864986181
 9   1         -1.526510000229        0.912275016308        1.086490035057
10   1          1.051540017128       -0.548456013203        1.409270048141
11   1         -1.306149959564       -0.256576985121       -0.406516999006
12   1         -0.668847024441       -0.228882998228       -1.320639967918
13   1          1.720720052719       -0.827916979790        0.560199022293
14   1          0.014886500314       -1.065009951591       -1.532909989357
15   1          0.358085989952       -0.007484850008       -1.708629965782
16   1         -1.269860029221       -1.107169985771        0.299724996090
17   1         -1.621350049973       -0.090432897210        0.624462008476
18   1         -0.835717976093        1.452520012856       -0.667209982872
19   1         -1.498110055923        0.789440989494       -0.052288699895
20   1          1.477149963379       -1.333009958267       -0.375474989414
21   1         -0.822462022305       -0.580079019070        1.174139976501
22   1          0.953333973885        1.211019992828        0.627870976925
23   1          0.122942999005       -1.137259960175        1.275370001793
24   1          0.481220006943        0.710272014141       -0.875020980835
25   1         -0.386189013720       -0.464300990105        0.182689994574
26   1          1.047440052032       -0.807152986526       -1.267840027809
27   1         -0.241659998894       -1.527699947357        0.324162006378
28   1          0.069692499936        1.313099980354       -0.040401399136
29   1         -1.394359946251        0.588008999825       -1.126600027084
30   1          0.131787002087       -0.054411601275        1.092260003090
31   1         -0.389191001654        0.830249011517       -1.513039946556
32   1          0.865104019642        0.587907016277        1.563429951668
33   1          1.382459998131        0.813902020454       -0.286442995071
34   1          0.228349000216       -0.355563998222       -0.687445998192
35   1         -0.489665001631        0.443702995777       -0.477824985981
36   1         -0.675567984581        0.463638991117        0.566543996334
37   1          0.414299994707        0.319922000170        0.143744006753
38   1          0.631130993366       -0.768001019955        0.362587988377
