 #

 38 atoms
 1 atom types

    -11.4401         11.5391     xlo xhi
    -11.6662         11.5835     ylo yhi
    -11.7234         12.1195     zlo zhi
  0.0 0.0 0.0 xy xz yz


  Atoms

 1   1          1.365479946136       -0.024982299656        0.693176984787
 2   1          0.425736010075       -1.414489984512       -0.510441005230
 3   1          1.539129972458       -0.017672199756       -0.426795005798
 4   1          0.673415005207       -0.104263000190       -1.723410010338
 5   1         -0.896283984184        0.277195006609        1.429620027542
 6   1         -0.654322981834       -1.171489953995       -0.895546972752
 7   1         -0.311971008778        1.192209959030        1.275609970093
 8   1         -0.402864009142        1.494940042496        0.206420004368
 9   1         -1.285529971123        1.079820036888        0.761916995049
10   1         -0.040162801743        0.544391989708        2.119529962540
11   1         -1.395130038261       -0.116076000035       -0.800634980202
12   1         -0.155737996101       -1.434470057487        1.234779953957
13   1          0.632974982262       -1.666180014610        0.543245017529
14   1          0.241610005498       -1.082340002060       -1.530679941177
15   1         -0.399107992649       -0.185530006886       -1.349760055542
16   1         -1.403609991074       -0.973040997982       -0.055277500302
17   1         -1.440140008926        0.061158299446        0.336609005928
18   1         -0.462509006262        1.583549976349       -0.914095997810
19   1         -1.161039948463        0.882526993752       -0.316069006920
20   1          1.236529946327       -0.919887006283        0.045453500003
21   1         -0.733328998089       -0.600036978722        0.817353010178
22   1          0.609894990921        1.234490036964        0.713698983192
23   1          0.831763982773       -0.819643020630        1.295449972153
24   1          0.888677000999        0.636317014694       -0.961917996407
25   1         -0.531114995480       -0.347860991955       -0.227867007256
26   1          1.269619941711       -0.888666987419       -1.094650030136
27   1         -0.418145000935       -1.418040037155        0.161606997252
28   1          0.507471978664        1.434730052948       -0.365788996220
29   1         -1.006119966507        0.735565006733       -1.390900015831
30   1          0.381193011999        0.232632994652        1.146000027657
31   1          0.057210598141        0.834635019302       -1.647279977798
32   1         -0.150609001517       -0.487765997648        1.751649975777
33   1          1.468420028687        0.991117000580        0.019063999876
34   1          0.445143997669       -0.352066993713       -0.674166977406
35   1         -0.175979003310        0.588123023510       -0.616982996464
36   1         -0.417053997517        0.447786986828        0.460970014334
37   1          0.591857016087        0.374969989061        0.074989400804
38   1          0.274637997150       -0.601647019386        0.415120989084
