 #

 38 atoms
 1 atom types

    -11.4036         11.6238     xlo xhi
    -11.4303         11.5499     ylo yhi
    -12.0750         11.8746     zlo zhi
  0.0 0.0 0.0 xy xz yz


  Atoms

 1   1          1.278149962425       -0.184842005372        1.440690040588
 2   1         -0.405431985855       -1.430320024490       -0.636636972427
 3   1          1.284420013428        0.439686000347        0.529982984066
 4   1          1.592399954796        0.010824999772       -0.461640000343
 5   1          0.267605990171       -0.466594994068        1.745650053024
 6   1         -0.864086985588       -1.194810032845        0.400117009878
 7   1         -0.499790996313        1.100659966469        1.044720053673
 8   1         -0.584500014782        1.549909949303       -0.021804399788
 9   1         -0.454468011856        0.365543991327        1.874559998512
10   1         -0.437907010317       -0.250167012215        0.928503990173
11   1         -1.270609974861       -0.188628003001        0.231731995940
12   1         -1.057690024376       -0.522180974483       -0.808826029301
13   1          1.623839974403       -0.630976021290        0.482699990273
14   1         -0.577992022038       -0.439269006252       -1.805230021477
15   1          0.455363988876       -0.165950000286       -2.075020074844
16   1         -0.196751996875       -1.308590054512        1.263550043106
17   1         -1.357599973679        0.215268999338        1.266790032387
18   1         -0.776269972324        1.334020018578       -1.102200031281
19   1         -1.403550028801        0.938938021660        0.449710994959
20   1          1.272729992867       -0.572571992874       -1.357730031013
21   1          0.240365996957       -1.429430007935        0.284915000200
22   1          0.425871998072        1.175099968910        0.354815989733
23   1         -0.888868987560       -0.656605005264        1.826910018921
24   1          0.815214991570        0.419102996588       -1.233410000801
25   1         -0.218046993017       -0.508240997791       -0.114380002022
26   1         -1.154289960861        0.452380001545       -1.632990002632
27   1          0.928514003754       -1.246659994125        1.201310038567
28   1          0.217619001865        1.183069944382       -0.714570999146
29   1         -1.307360053062        0.555122017860       -0.554705023766
30   1          0.564432024956       -0.424933999777        0.629996001720
31   1         -0.073549300432        0.793923020363       -1.804730057716
32   1          0.386094987392        0.474274992943        1.177000045776
33   1          1.258249998093        1.059180021286       -0.397861003876
34   1          0.214574992657       -0.625015974045       -1.102630019188
35   1         -0.322475999594        0.271591007710       -0.908710002899
36   1         -0.423869997263        0.506506025791        0.148476004601
37   1          0.544578015804        0.227587997913       -0.227744996548
38   1          0.905077993870       -0.826910018921       -0.321325004101
