 #

 38 atoms
 1 atom types

    -11.6031         11.4944     xlo xhi
    -11.6669         11.7579     ylo yhi
    -12.0744         11.8065     zlo zhi
  0.0 0.0 0.0 xy xz yz


  Atoms

 1   1          0.843370974064        0.248284995556        1.804270029068
 2   1          1.083580017090       -1.232849955559       -0.470174998045
 3   1          1.399629950523        0.008082849905        0.855201005936
 4   1         -0.292109012604        1.348850011826       -1.344429969788
 5   1          1.193600058556        0.512748003006       -0.994028985500
 6   1         -0.776521980762       -1.160269975662       -0.336374998093
 7   1         -1.326259970665       -0.674372017384        0.491649001837
 8   1          0.400961011648        1.700729966164        0.398824006319
 9   1         -1.052000045776        1.217180013657        0.457958996296
10   1          0.170201003551       -1.666880011559        1.107660055161
11   1         -1.396489977837       -0.198496997356       -0.886840999126
12   1         -0.709208011627        0.366636991501       -1.615149974823
13   1         -0.258825004101        0.174162998796        1.806540012360
14   1         -0.362282007933       -0.530090987682       -1.104560017586
15   1          0.068050302565       -0.292510986328       -2.074409961700
16   1          0.167713999748       -1.579929947853        0.013970400207
17   1         -1.603109955788        0.320760011673        0.101460002363
18   1          0.552056014538        1.368350028992       -0.647746026516
19   1         -0.445823013783        1.757940053940       -0.319869995117
20   1          1.494359970093       -0.263898998499       -0.230217993259
21   1         -0.834150016308       -1.653239965439        0.662384986877
22   1          0.953036010265        1.021540045738        1.049520015717
23   1          0.350077986717       -0.695639014244        1.543769955635
24   1          0.744216024876       -0.454205989838       -1.216359972954
25   1         -0.625171005726       -0.097210302949       -0.156057998538
26   1          0.191823005676       -1.440950036049       -1.073950052261
27   1          0.876527011395       -0.923457980156        0.598150014877
28   1          0.913290977478        0.604444980621        0.044980298728
29   1         -0.944679975510        0.819702029228       -0.628663003445
30   1         -0.781159996986       -0.779025018215        1.486680030823
31   1          0.472916007042        0.697148025036       -1.813500046730
32   1         -0.150822997093        1.076670050621        1.163540005684
33   1          0.406195998192       -0.381574988365       -0.200710996985
34   1          0.089660301805        0.408809989691       -0.854614973068
35   1         -0.128630995750        0.803021013737        0.113494999707
36   1         -0.777826011181        0.207284003496        0.858588993549
37   1          0.320347011089        0.123561002314        0.822067975998
38   1         -0.226535007358       -0.761308014393        0.586930990219
