 #

 38 atoms
 1 atom types

    -11.3635         11.4848     xlo xhi
    -11.9227         11.7231     ylo yhi
    -11.7685         11.9416     zlo zhi
  0.0 0.0 0.0 xy xz yz


  Atoms

 1   1          1.441779971123       -0.248128995299        0.679274976254
 2   1          0.857195973396       -1.440189957619       -0.663331985474
 3   1          1.375550031662       -0.491540014744       -0.361423999071
 4   1          0.522670984268        0.228543996811       -1.508649945259
 5   1         -0.882287025452        0.133467003703        1.494699954987
 6   1         -0.670092999935       -0.783717989922       -1.005769968033
 7   1         -0.165580004454        0.969506025314        1.291249990463
 8   1         -0.555121004581        1.723099946976        0.548525989056
 9   1         -1.259709954262        1.027379989624        0.996006011963
10   1          0.226952001452        0.166169002652        1.941589951515
11   1         -1.259430050850        0.058739200234       -0.633722007275
12   1         -0.042658999562       -1.392420053482        0.940656006336
13   1          0.816806972027        0.530065000057        1.068029999733
14   1          0.131215006113       -0.782926023006       -1.768530011177
15   1         -0.582131028175        0.095969498158       -1.683979988098
16   1         -1.349920034409       -0.948324024677       -0.131109997630
17   1         -1.363499999046        0.077728897333        0.448781013489
18   1         -0.325390011072        1.443619966507       -0.476924985647
19   1         -1.324399948120        1.069059967995       -0.118303000927
20   1          0.688657999039       -1.922670006752        0.312166005373
21   1         -0.939526975155       -0.806452989578        0.891812980175
22   1          0.445037990808        1.269799947739        0.349853008986
23   1          0.751281023026       -0.715247988701        1.408079981804
24   1          1.484799981117        0.362291991711       -0.996559023857
25   1         -0.442086994648       -0.386976003647       -0.005526630208
26   1          1.189890027046       -0.657352983952       -1.428859949112
27   1         -0.193766996264       -1.415249943733       -0.205934002995
28   1          0.668933987617        1.006399989128       -0.693139016628
29   1         -1.073789954185        0.983017981052       -1.187350034714
30   1         -0.022083999589       -0.155281007290        0.929391026497
31   1         -0.054657001048        1.148350000381       -1.529250025749
32   1         -0.311910986900       -0.778859019279        1.809409976006
33   1          1.449329972267        0.721154987812        0.090840503573
34   1          0.343948006630       -0.508575975895       -0.734686017036
35   1         -0.237411007285        0.399177014828       -0.720055997372
36   1         -0.444512993097        0.641709029675        0.313295990229
37   1          0.521104991436        0.206891998649        0.047463398427
38   1          0.584818005562       -0.828220009804        0.291987001896
