 #

 38 atoms
 1 atom types

    -11.4211         11.4349     xlo xhi
    -11.7301         11.7124     ylo yhi
    -11.7496         11.8709     zlo zhi
  0.0 0.0 0.0 xy xz yz


  Atoms

 1   1          1.265069961548       -0.135979995131        0.615064024925
 2   1          0.415165007114       -1.585980057716       -0.395076990128
 3   1          1.434890031815       -0.044167898595       -0.479526996613
 4   1          0.737698972225       -0.320706993341       -1.749639987946
 5   1         -0.721051990986        0.354050010443        1.529340028763
 6   1         -0.478395998478       -1.096119999886       -0.911840021610
 7   1         -0.478929996490        1.395210027695        1.252719998360
 8   1         -0.430458992720        1.580749988556        0.173186004162
 9   1         -1.421100020409        0.964568972588        0.888531982899
10   1          0.252864986658        0.816008985043        1.840890049934
11   1         -1.254780054092        0.064572997391       -0.810023009777
12   1         -0.110367000103       -1.398229956627        1.195649981499
13   1          0.777180016041       -1.730049967766        0.645197987556
14   1          0.420634001493       -1.338969945908       -1.480649948120
15   1         -0.269340991974       -0.080968298018       -1.319030046463
16   1         -1.381549954414       -0.903316020966       -0.288417011499
17   1         -1.418969988823        0.021958699450        0.298299014568
18   1         -0.746807992458        1.712430000305       -0.861016988754
19   1         -1.305840015411        0.998284995556       -0.209919005632
20   1          1.310369968414       -1.036229968071       -0.028314100578
21   1         -0.631195008755       -0.503096997738        0.854254007339
22   1          0.442887008190        1.108229994774        0.726436018944
23   1          0.836510002613       -0.846337974072        1.352390050888
24   1          0.662790000439        0.487102001905       -1.028059959412
25   1         -0.451716989279       -0.295621007681       -0.192390993237
26   1          1.400079965591       -0.965956985950       -1.121240019798
27   1         -0.508476972580       -1.376899957657        0.165575996041
28   1          0.499415993690        1.358289957047       -0.369895011187
29   1         -0.919125020504        0.827941000462       -1.513159990311
30   1          0.285670012236        0.074502900243        1.063259959221
31   1          0.083755202591        1.294360041618       -1.441879987717
32   1         -0.119948998094       -0.517230987549        1.870900034904
33   1          1.362020015717        0.874554991722        0.134393006563
34   1          0.484715014696       -0.551447987556       -0.688264012337
35   1         -0.339325010777        0.713935017586       -0.586256980896
36   1         -0.489120006561        0.554167985916        0.482008993626
37   1          0.457522988319        0.279498010874        0.008725279942
38   1          0.347265988588       -0.753099977970        0.377779006958
