 #

 38 atoms
 1 atom types

    -11.4774         11.5595     xlo xhi
    -11.5566         11.7017     ylo yhi
    -11.7583         11.8398     zlo zhi
  0.0 0.0 0.0 xy xz yz


  Atoms

 1   1          0.963689982891        0.259911000729        1.750120043755
 2   1          0.385066002607       -1.556589961052       -0.832744002342
 3   1          1.154270052910        0.605831980705        0.719739019871
 4   1          1.559540033340       -0.090838603675       -0.064417302608
 5   1         -0.313338994980        0.018631400540        1.692939996719
 6   1         -0.670170009136       -1.115540027618       -0.651820003986
 7   1         -0.518509984016        1.598119974136        0.748435974121
 8   1         -0.576201021671        1.319380044937       -0.303198993206
 9   1         -0.980470001698        0.808215975761        1.332180023193
10   1          0.513791978359       -0.725108027458        1.839840054512
11   1         -1.296059966087       -0.284393996000       -0.217240005732
12   1         -0.960340976715       -0.258774012327       -1.320459961891
13   1          1.389439940453       -0.487329989672        0.985520005226
14   1         -0.641465008259        1.020220041275       -1.389129996300
15   1          0.791155993938       -0.637742996216       -1.758319973946
16   1         -1.100600004196       -1.199810028076        0.380091995001
17   1         -1.058539986610       -0.188809007406        0.866424024105
18   1         -1.404469966888        1.701699972153       -0.908384025097
19   1         -1.362720012665        0.748263001442        0.258708000183
20   1          1.298179984093       -0.883255004883       -0.819444000721
21   1         -0.310589998960       -0.968218982220        1.130130052567
22   1          0.411004006863        1.285019993782        0.228444993496
23   1          0.703190028667       -1.395329952240        1.004259943962
24   1          1.052099943161        0.177652001381       -1.051120042801
25   1         -0.289032995701       -0.490842998028        0.145522996783
26   1         -0.227850005031       -1.010400056839       -1.656409978867
27   1         -0.058561798185       -1.552870035172        0.190377995372
28   1          0.339127987623        1.005450010300       -0.861020028591
29   1         -1.477409958839        0.606463015079       -0.824057996273
30   1          0.382376998663       -0.147927001119        0.904330015182
31   1          0.043623000383        0.184685006738       -1.591480016708
32   1          0.219395995140        0.924344003201        1.287819981575
33   1          1.322819948196        0.972060024738       -0.323060005903
34   1          0.233676999807       -0.507059991360       -0.802377998829
35   1         -0.445966005325        0.298557996750       -0.575949013233
36   1         -0.344819009304        0.534817993641        0.473675996065
37   1          0.524654984474        0.243829995394       -0.093854196370
38   1          0.749996006489       -0.812310993671        0.105925999582
