 #

 38 atoms
 1 atom types

    -11.5135         11.5195     xlo xhi
    -11.5029         11.6015     ylo yhi
    -12.4898         11.7847     zlo zhi
  0.0 0.0 0.0 xy xz yz


  Atoms

 1   1          0.993366003036        0.205261006951        1.767320036888
 2   1          0.275092989206       -1.464720010757       -0.929334998131
 3   1          1.153820037842        0.608301997185        0.747628986835
 4   1          1.519510030746       -0.052427798510       -0.089610397816
 5   1         -0.235924005508       -0.052651699632        1.784659981728
 6   1         -0.772146999836       -0.982846021652       -0.639931976795
 7   1         -0.523617029190        1.601510047913        0.894370019436
 8   1         -0.644482970238        1.386109948158       -0.171557992697
 9   1         -0.894716024399        0.776693999767        1.498929977417
10   1          0.596741020679       -0.806910991669        1.777160048485
11   1         -1.338439941406       -0.172503992915       -0.102402001619
12   1         -1.070379972458       -0.075474597514       -1.259940028191
13   1          1.376979947090       -0.509787976742        0.945502996445
14   1         -0.149449005723       -0.172075003386       -2.489779949188
15   1          0.657867014408       -0.510712027550       -1.775869965553
16   1         -1.130429983139       -1.144700050354        0.409074991941
17   1         -1.026239991188       -0.181615993381        0.974107027054
18   1         -0.721827983856        1.139780044556       -1.274790048599
19   1         -1.390869975090        0.804974019527        0.478343009949
20   1          1.208729982376       -0.806288003922       -0.873795986176
21   1         -0.280752986670       -0.991294026375        1.119510054588
22   1          0.388125985861        1.320340037346        0.321069985628
23   1          0.704861998558       -1.453469991684        0.906819999218
24   1          0.974898993969        0.271623998880       -1.039739966393
25   1         -0.321435987949       -0.441103011370        0.176063001156
26   1         -0.373883008957       -0.845539987087       -1.645789980888
27   1         -0.108877003193       -1.502920031548        0.118052996695
28   1          0.277070999146        1.106940031052       -0.771109998226
29   1         -1.513460040092        0.777369022369       -0.620428979397
30   1          0.376967996359       -0.137687996030        0.921316027641
31   1         -0.040600601584        0.327059000731       -1.520429968834
32   1          0.241769000888        0.897741973400        1.365370035172
33   1          1.281800031662        1.027570009232       -0.280705988407
34   1          0.161880999804       -0.421573013067       -0.789529979229
35   1         -0.490563988686        0.382027000189       -0.502143979073
36   1         -0.360623002052        0.566303014755        0.549283027649
37   1          0.490377008915        0.296384990215       -0.060011301190
38   1          0.708853006363       -0.769707977772        0.082317501307
