 #

 38 atoms
 1 atom types

    -11.3634         11.5093     xlo xhi
    -11.9088         11.7263     ylo yhi
    -11.6875         11.8681     zlo zhi
  0.0 0.0 0.0 xy xz yz


  Atoms

 1   1          1.481770038605       -0.359623998404        0.188118994236
 2   1          0.372731000185       -1.471279978752       -0.698207020760
 3   1          1.509269952774        0.049022298306       -0.806967020035
 4   1          0.756537973881        0.079488597810       -1.675029993057
 5   1         -0.868596971035        0.229083999991        1.359879970551
 6   1         -0.563758015633       -0.935518026352       -0.907423019409
 7   1         -0.396777987480        1.248980045319        1.366430044174
 8   1         -0.602295994759        1.726269960403        0.352409005165
 9   1         -1.363399982452        1.081069946289        0.839793026447
10   1          0.133854001760        0.376756995916        1.855819940567
11   1         -1.174569964409       -0.017756499350       -0.738317012787
12   1          0.081166796386       -1.294379949570        1.091249942780
13   1          1.089750051498       -0.051987599581        1.153740048409
14   1          0.240748003125       -0.940401971340       -1.687459945679
15   1         -0.373163014650       -0.033539801836       -1.523589968681
16   1         -1.358919978142       -0.919337987900       -0.120797999203
17   1         -1.353530049324        0.083859898150        0.361629009247
18   1         -0.376529008150        1.609539985657       -0.758893013000
19   1         -1.174739956856        0.991074979305       -0.256090998650
20   1          0.605976998806       -1.908789992332        0.319186002016
21   1         -0.882058978081       -0.781648993492        0.877982020378
22   1          0.559202015400        0.872524976730        0.973789989948
23   1          1.180199980736       -1.144289970398        0.971154987812
24   1          0.785044014454        0.815873980522       -0.824630022049
25   1         -0.421294003725       -0.336008012295       -0.016468800604
26   1          1.216869950294       -0.932416021824       -1.157889962196
27   1         -0.401840001345       -1.432250022888        0.097022101283
28   1          0.354687005281        1.320119976997        0.014617799781
29   1         -1.006260037422        0.885302007198       -1.347390055656
30   1          0.049021199346       -0.208202004433        0.951210021973
31   1          0.057158499956        0.979771018028       -1.607560038567
32   1         -0.367693006992       -0.629791975021        1.868149995804
33   1          1.421169996262        0.804342985153        0.134754002094
34   1          0.378286987543       -0.346850991249       -0.773733019829
35   1         -0.236045002937        0.548291981220       -0.612105011940
36   1         -0.408219009638        0.649955987930        0.456234991550
37   1          0.541925013065        0.234143003821        0.098233498633
38   1          0.514315009117       -0.841399013996        0.181147992611
