 #

 38 atoms
 1 atom types

    -11.6852         11.9668     xlo xhi
    -11.8287         11.5911     ylo yhi
    -11.7867         11.6911     zlo zhi
  0.0 0.0 0.0 xy xz yz


  Atoms

 1   1          0.899809002876        0.225971996784        1.685449957848
 2   1         -0.793193995953       -1.828660011292       -0.758848011494
 3   1          1.163390040398        0.595735013485        0.651594996452
 4   1          1.966820001602        0.156712993979        0.024062400684
 5   1         -0.179266005754       -0.178231000900        1.691120028496
 6   1         -0.818790972233       -0.733914017677       -0.804996013641
 7   1         -1.023090004921        1.451120018959        0.732873976231
 8   1         -0.385352998972        1.325770020485       -0.171400994062
 9   1         -0.878063976765        0.648799002171        1.518229961395
10   1          0.702332973480       -0.877936005592        1.604650020599
11   1         -1.380929946899       -0.183989003301       -0.040845099837
12   1         -1.466570019722        0.159171000123       -1.124019980431
13   1          1.490620017052       -0.413174986839        0.943131029606
14   1         -0.022851899266       -1.249359965324       -1.370319962502
15   1          0.595408976078       -0.412829995155       -1.786739945412
16   1         -1.023319959641       -1.247879981995        0.188022002578
17   1         -1.023880004883       -0.380531013012        0.990756988525
18   1         -0.580291986465        1.135609984398       -1.265140056610
19   1         -1.685199975967        0.520385980606        0.763611018658
20   1          0.998560011387       -1.129629969597       -0.842253983021
21   1         -0.198736995459       -1.109949946404        0.974200010300
22   1          0.598435997963        1.481389999390        0.308771014214
23   1          0.804618000984       -1.214050054550        0.541495978832
24   1          1.301759958267       -0.043928001076       -1.033439993858
25   1         -0.321489989758       -0.450383991003        0.126146003604
26   1         -0.440104007721       -0.052599500865       -1.597589969635
27   1          0.063331596553       -1.360739946365       -0.255953013897
28   1          0.460269004107        1.591120004654       -0.792851984501
29   1         -1.399459958076        0.913833022118       -0.244035005569
30   1          0.414095014334       -0.186523005366        0.812959015369
31   1          0.386936008930        0.582584023476       -1.167580008507
32   1          0.158430993557        0.834523975849        1.102110028267
33   1          1.238610029221        0.873759984970       -0.430507004261
34   1          0.232197999954       -0.386092990637       -0.768131971359
35   1         -0.561088979244        0.316830992699       -0.589305996895
36   1         -0.634324014187        0.486993998289        0.474137008190
37   1          0.322228997946        0.482369989157       -0.040940601379
38   1          1.018149971962       -0.342278987169       -0.048435200006
