 #

 38 atoms
 1 atom types

    -11.5446         11.6343     xlo xhi
    -11.4693         11.6156     ylo yhi
    -11.8511         11.8852     zlo zhi
  0.0 0.0 0.0 xy xz yz


  Atoms

 1   1          1.326570034027       -0.233852997422        1.320610046387
 2   1          0.395877987146       -1.449759960175       -0.743318974972
 3   1          1.133579969406        0.642464995384        0.645927011967
 4   1          1.461359977722       -0.004220999777       -0.211675003171
 5   1         -0.425399988890        0.230104997754        1.546730041504
 6   1         -0.687141001225       -1.144899964333       -0.623722970486
 7   1         -0.121604003012        1.294569969177        1.282459974289
 8   1         -0.730148017406        1.615599989891        0.394277006388
 9   1         -1.191300034523        0.951448976994        1.173310041428
10   1          0.378179013729       -0.471731007099        1.885190010071
11   1         -1.369889974594       -0.303629010916       -0.304340004921
12   1         -0.890115976334       -0.285995990038       -1.323459982872
13   1          1.634269952774       -0.863052010536        0.473655998707
14   1          0.081303402781       -0.027081500739       -1.851050019264
15   1          0.864099025726       -0.755178987980       -1.512240052223
16   1         -1.156119942665       -1.151299953461        0.394185006618
17   1         -1.192100048065       -0.106446996331        0.793259978294
18   1         -0.887233018875        1.421710014343       -0.674090027809
19   1         -1.394389986992        0.750630021095        0.090844802558
20   1          1.456220030785       -1.036309957504       -0.632638990879
21   1         -0.399549990892       -0.825227022171        1.154099941254
22   1          0.344742000103        1.346619963646        0.263067007065
23   1          0.681542992592       -1.130130052567        1.034160017967
24   1          0.875621974468        0.292723000050       -1.125210046768
25   1         -0.376074999571       -0.423770993948        0.137125000358
26   1         -0.194838002324       -1.102169990540       -1.632799983025
27   1         -0.089021697640       -1.469300031662        0.278542995453
28   1          0.185197994113        1.131489992142       -0.830242991447
29   1         -1.544620037079        0.562799990177       -0.998938977718
30   1          0.359295010567       -0.096983298659        0.855822980404
31   1         -0.593129992485        0.783957004547       -1.550830006599
32   1          0.640788018703        0.594175994396        1.645480036736
33   1          1.208639979362        1.067080020905       -0.387683004141
34   1          0.087771803141       -0.404116988182       -0.837069988251
35   1         -0.565186977386        0.398405998945       -0.535481989384
36   1         -0.397255003452        0.588093996048        0.511089980602
37   1          0.430233001709        0.330484986305       -0.129054993391
38   1          0.659816980362       -0.717207014561        0.024020299315
