 #

 38 atoms
 1 atom types

    -11.5017         11.5023     xlo xhi
    -11.6124         11.6603     ylo yhi
    -11.8503         11.8878     zlo zhi
  0.0 0.0 0.0 xy xz yz


  Atoms

 1   1          1.327389955521       -0.684253990650        1.746269941330
 2   1          0.221153005958       -1.612450003624       -0.695841014385
 3   1          1.413840055466        0.372202992439        0.524143993855
 4   1          1.004160046577        0.065456703305       -1.228929996490
 5   1         -0.336091995239        0.341073006392        1.443570017815
 6   1         -0.753295004368       -1.133499979973       -0.630566000938
 7   1         -0.227238997817        1.443709969521        1.293650031090
 8   1         -0.681757986546        1.660269975662        0.301171004772
 9   1         -1.192720055580        1.007869958878        1.060930013657
10   1          0.274715006351       -0.453442007303        1.887799978256
11   1         -1.347509980202       -0.247196003795       -0.351828008890
12   1         -0.875235021114       -0.316749006510       -1.370239973068
13   1          1.466070055962       -0.698678970337        0.675239980221
14   1         -0.188964992762       -1.164659976959       -1.643010020256
15   1          0.100992001593       -0.061263401061       -1.850319981575
16   1         -1.225029945374       -1.069790005684        0.380661010742
17   1         -1.173949956894       -0.022589199245        0.723704993725
18   1         -0.710928022861        1.403560042381       -0.789394021034
19   1         -1.318019986153        0.812295019627       -0.022967500612
20   1          1.502279996872       -0.263271987438       -0.339998006821
21   1         -0.455902993679       -0.746294975281        1.131219983101
22   1          0.588180005550        0.977589011192        0.776108980179
23   1          0.558966994286       -1.192810058594        1.076589941978
24   1          0.306818991899        0.867887020111       -1.167389988899
25   1         -0.355825006962       -0.417261987925        0.104212999344
26   1          1.064100027084       -1.011890053749       -1.040210008621
27   1         -0.207479000092       -1.481490015984        0.316715002060
28   1          0.238628000021        1.312929987907       -0.195608004928
29   1         -1.501710057259        0.579240024090       -1.070039987564
30   1          0.435297012329       -0.142451003194        0.815587997437
31   1         -0.634572029114        0.737089991570       -1.696879982948
32   1          0.981595993042        0.362902998924        1.594390034676
33   1          1.274719953537        0.897628009319       -0.498782008886
34   1          0.114114001393       -0.492063999176       -0.864124000072
35   1         -0.487890005112        0.373470008373       -0.628834009171
36   1         -0.346399992704        0.619578003883        0.413949012756
37   1          0.507104992867        0.237896993756       -0.181909993291
38   1          0.640402019024       -0.860552012920        0.000964511011
