 #

 38 atoms
 1 atom types

    -11.4784         12.1093     xlo xhi
    -11.6686         11.7598     ylo yhi
    -11.7386         11.5354     zlo zhi
  0.0 0.0 0.0 xy xz yz


  Atoms

 1   1          1.201410055161        0.257290005684        0.791778028011
 2   1          0.272742003202       -1.668589949608       -0.342261999846
 3   1          1.281350016594       -0.009676340036       -0.266927003860
 4   1          1.268090009689       -0.233881995082       -1.314790010452
 5   1         -0.808556973934        0.452385008335        1.535439968109
 6   1         -0.612236976624       -1.055840015411       -0.530414998531
 7   1         -0.486066997051        1.508290052414        1.308949947357
 8   1         -0.840915977955        1.759809970856        0.267664998770
 9   1         -1.478389978409        1.144389986992        0.954448997974
10   1          2.109289884567       -0.615489006042       -0.671611011028
11   1         -1.329959988594       -0.194048002362       -0.424396991730
12   1         -0.661397993565       -0.281798005104       -1.298130035400
13   1          0.843842029572       -1.629670023918        0.642009019852
14   1          0.190141007304       -1.149809956551       -1.346510052681
15   1          0.299208998680       -0.092451497912       -1.738549947739
16   1         -1.324010014534       -0.990248024464        0.337859988213
17   1         -1.404090046883        0.080694496632        0.649847984314
18   1         -0.789614975452        1.489840030670       -0.816213011742
19   1         -1.409999966621        0.875970005989       -0.126019001007
20   1          1.654229998589       -0.863756000996        0.321541994810
21   1         -0.770905017853       -0.611774981022        1.230000019073
22   1          0.458961993456        1.117349982262        0.886708021164
23   1          1.223709940910       -0.700443983078        1.301859974861
24   1          0.598573029041        0.639587998390       -0.913039028645
25   1         -0.454371005297       -0.297320008278        0.234432995319
26   1          1.089259982109       -1.042529940605       -0.599627971649
27   1         -0.292481005192       -1.340420007706        0.509016990662
28   1          0.100218996406        1.371950030327       -0.172857999802
29   1         -1.343320012093        0.597428977489       -1.203209996223
30   1          0.140972003341        0.041436001658        1.122449994087
31   1         -0.305997997522        0.801414012909       -1.554039955139
32   1          0.217813000083       -1.038750052452        1.403349995613
33   1          1.176249980927        1.077370047569       -0.013324500062
34   1          0.243259996176       -0.357744991779       -0.642001986504
35   1         -0.465914994478        0.478803992271       -0.533663988113
36   1         -0.533322989941        0.744894027710        0.525174021721
37   1          0.367163985968        0.376457005739        0.122679002583
38   1          0.575084984303       -0.641133010387        0.362401992083
