 #

 38 atoms
 1 atom types

    -11.3848         11.5727     xlo xhi
    -11.9361         11.6282     ylo yhi
    -11.8713         11.8817     zlo zhi
  0.0 0.0 0.0 xy xz yz


  Atoms

 1   1          1.240100026131       -0.470535010099        1.233369946480
 2   1          0.087971001863       -1.936139941216       -0.428577989340
 3   1          1.322219967842        0.416736006737        0.505761981010
 4   1          1.572690010071        0.191326007247       -0.556631028652
 5   1         -0.522783994675        0.346258014441        1.694020032883
 6   1         -0.739414989948       -1.187440037727       -0.586813986301
 7   1         -0.129973992705        1.345100045204        1.316149950027
 8   1         -0.568476021290        1.508200049400        0.286500990391
 9   1         -1.175119996071        1.065930008888        1.105209946632
10   1          0.304286003113       -0.375012010336        1.881659984589
11   1         -1.324139952660       -0.232135996222       -0.618695974350
12   1         -0.956909000874       -0.113256998360       -1.685750007629
13   1          1.236999988556       -0.611536979675        0.104684002697
14   1          0.107675001025       -1.190819978714       -1.304309964180
15   1          0.187056005001       -0.104193001986       -1.871320009232
16   1         -0.330083996058       -1.407039999962        0.481204003096
17   1         -1.318189978600        0.001349720056        0.888275980949
18   1         -0.866699993610        1.628180027008       -0.769816994667
19   1         -1.383679986000        0.716645002365        0.061369199306
20   1          1.076509952545       -1.458490014076       -0.675085008144
21   1         -0.579370975494       -0.686212003231        1.277770042419
22   1          0.466084003448        1.146659970284        0.399832993746
23   1          0.352362990379       -1.328660011292        1.369519948959
24   1          0.629661023617        0.612133026123       -1.098780035973
25   1         -0.605706989765       -0.388164013624        0.145989999175
26   1          0.851821005344       -0.443920999765       -1.030740022659
27   1          0.783639013767       -1.567049980164        0.403367012739
28   1          0.208722993731        1.508669972420       -0.612309992313
29   1         -1.384829998016        0.732239007950       -1.073480010033
30   1          0.306735992432       -0.437956988811        0.728527009487
31   1         -0.364778012037        0.816272020340       -1.468610048294
32   1          0.557551980019        0.480435013771        1.277199983597
33   1          1.233270049095        1.188269972801       -0.351105004549
34   1         -0.236440002918       -0.219568997622       -0.897275984287
35   1         -0.437687009573        0.673828005791       -0.401612997055
36   1         -0.339767992496        0.485650002956        0.651050984859
37   1          0.477577000856        0.180445998907       -0.130713000894
38   1          0.261132001877       -0.886192023754       -0.249825000763
