 #

 38 atoms
 1 atom types

    -11.4295         11.5657     xlo xhi
    -11.5182         11.3524     ylo yhi
    -12.0687         11.8992     zlo zhi
  0.0 0.0 0.0 xy xz yz


  Atoms

 1   1          1.254989981651       -0.164827004075        1.375699996948
 2   1         -0.086727999151       -1.289070010185       -0.890179991722
 3   1          1.334529995918        0.522014021873        0.498984992504
 4   1          1.430729985237       -0.059955898672       -0.427487999201
 5   1          0.246643006802       -0.325686991215        1.772040009499
 6   1         -1.059769988060       -1.107380032539        0.337559014559
 7   1         -0.341652989388        1.352370023727        0.995231986046
 8   1         -0.450612992048        1.344230055809       -0.118330001831
 9   1         -0.590781986713        0.373511999846        1.480839967728
10   1         -0.353385001421       -0.537532985210        0.909260988235
11   1         -1.220340013504       -0.048154700547       -0.011169799604
12   1         -1.095319986343       -0.848456025124       -0.746106982231
13   1          1.565719962120       -0.702485024929        0.467545002699
14   1         -0.555055022240       -0.394933998585       -1.582620024681
15   1          0.532877027988       -0.285167992115       -2.068739891052
16   1         -0.361777007580       -1.518149971962        1.343979954720
17   1         -1.398219943047       -0.253940999508        1.038550019264
18   1         -0.761708021164        1.293640017509       -1.215229988098
19   1         -1.270059943199        0.816543996334        0.693332016468
20   1          1.284559965134       -0.684265971184       -1.319390058517
21   1          0.009840980172       -1.437250018120        0.296261996031
22   1          0.553795993328        1.319069981575        0.334845989943
23   1         -0.812694013119       -0.650349974632        1.899199962616
24   1          1.023350000381        0.481003999710       -1.310330033302
25   1         -0.241281002760       -0.501589000225       -0.154477998614
26   1         -1.424710035324        0.145872995257       -1.142449975014
27   1          0.676775991917       -1.121420025826        1.119910001755
28   1          0.324990004301        1.295459985733       -0.897185981274
29   1         -1.429509997368        0.955199003220       -0.393907994032
30   1          0.581947028637       -0.255668997765        0.503853976727
31   1         -0.026355100796        0.574835002422       -1.655959963799
32   1          0.455541014671        0.592706978321        1.177569985390
33   1          1.350829958916        1.100749969482       -0.448285013437
34   1          0.336567997932       -0.284276992083       -1.013389945030
35   1         -0.481588006020        0.394598990679       -0.687951028347
36   1         -0.306939005852        0.417308002710        0.415430009365
37   1          0.503795981407        0.448392003775       -0.276688992977
38   1          0.800998985767       -0.956952989101       -0.300220012665
