 #

 38 atoms
 1 atom types

    -11.5572         11.7577     xlo xhi
    -11.7532         11.7115     ylo yhi
    -11.8301         11.6019     zlo zhi
  0.0 0.0 0.0 xy xz yz


  Atoms

 1   1          0.046041600406        0.517786026001        1.601850032806
 2   1          1.208379983902       -1.157580018044       -0.585147976875
 3   1          1.652590036392       -0.160236999393        0.812065005302
 4   1          0.012012200430        1.248900055885       -1.045510053635
 5   1          0.959665000439        0.622655987740       -0.901103019714
 6   1         -0.644051015377       -1.569290041924       -0.335644990206
 7   1         -1.400740027428       -0.397855013609        0.856217026711
 8   1          0.480109006166        1.238000035286        0.756263017654
 9   1         -1.202509999275        1.578250050545        0.451191991568
10   1          0.209141999483       -1.388919949532        1.096750020981
11   1         -1.496680021286        0.120397001505       -0.716807007790
12   1         -0.814704000950        0.585446000099       -1.502859950066
13   1         -1.079139947891        0.412028014660        1.508479952812
14   1         -0.881960988045       -0.721799015999       -1.040680050850
15   1         -0.137566000223       -0.518779993057       -1.830080032349
16   1          0.428557991982       -1.753239989281       -0.014349199831
17   1         -1.557170033455        0.544605016708        0.341414004564
18   1          0.843089997768        1.551880002022       -0.302468001842
19   1         -0.201075002551        1.711549997330        0.010514100082
20   1          1.757750034332       -0.211761996150       -0.313625007868
21   1         -0.847445011139       -1.338160037994        0.727427005768
22   1          1.117900013924        0.597486972809        1.364050030708
23   1          0.750362992287       -0.482138007879        1.507640004158
24   1          0.873318016529       -0.373818993568       -1.357939958572
25   1         -1.447199940681       -0.841656029224       -0.122284002602
26   1          0.152180001140       -1.027609944344       -0.853204011917
27   1          0.993471980095       -0.928662002087        0.483332008123
28   1          1.226050019264        0.633090972900        0.190431997180
29   1         -0.845676004887        0.940123021603       -0.423698008060
30   1         -0.370005995035       -0.422816991806        1.186450004578
31   1          0.303180009127        0.496951997280       -1.793200016022
32   1         -0.501012980938        0.770175993443        0.677498996258
33   1          0.695659995079       -0.238912999630       -0.295156002045
34   1         -0.129187002778        0.044622000307       -0.899026989937
35   1          0.177349001169        0.701884984970       -0.140291005373
36   1         -0.701467990875       -0.045220900327        0.020782399923
37   1          0.417827010155        0.083088599145        0.673228979111
38   1         -0.047039698809       -0.820463001728        0.207493007183
