 #

 38 atoms
 1 atom types

    -11.3768         11.3809     xlo xhi
    -11.8559         11.6914     ylo yhi
    -11.8399         11.8962     zlo zhi
  0.0 0.0 0.0 xy xz yz


  Atoms

 1   1          1.158890008926       -0.114734001458        0.732333004475
 2   1          0.366230994463       -1.367110013962       -0.786189973354
 3   1          1.281080007553       -0.158076003194       -0.385156989098
 4   1          0.578598976135        0.101180002093       -1.839920043945
 5   1         -0.834976017475        0.194548994303        1.365560054779
 6   1         -0.628189027309       -0.883726000786       -0.932089984417
 7   1         -0.254559010267        1.105010032654        1.259369969368
 8   1         -0.476855009794        1.569810032845        0.274071991444
 9   1         -1.280750036240        1.090899944305        0.858287990093
10   1          0.209746003151        0.289636999369        1.896209955215
11   1         -1.231299996376        0.016894299537       -0.735186994076
12   1          0.115075998008       -1.296249985695        1.003649950027
13   1          1.352439999580        0.227142006159        1.806939959526
14   1          0.113232001662       -0.896568000317       -1.753290057182
15   1         -0.488341987133        0.022329900414       -1.565690040588
16   1         -1.376799941063       -0.885029017925       -0.114260002971
17   1         -1.358759999275        0.108010001481        0.385491997004
18   1         -0.563906013966        1.691359996796       -0.837499022484
19   1         -1.246829986572        1.005339980125       -0.258031010628
20   1          0.607658028603       -1.855939984322        0.183688998222
21   1         -0.852428019047       -0.781884014606        0.852343022823
22   1          0.778860986233        0.839066982269        1.119240045547
23   1          0.772418022156       -0.678919970989        1.628190040588
24   1          0.795282006264        0.663461983204       -0.935670971870
25   1         -0.438852012157       -0.261857986450       -0.025278499350
26   1          1.131489992142       -0.735213994980       -1.318910002708
27   1         -0.389521002769       -1.369410037994        0.027000799775
28   1          0.400552004576        1.481130003929       -0.361494004726
29   1         -1.114699959755        0.911818027496       -1.379699945450
30   1          0.083543099463       -0.194027006626        0.939978003502
31   1         -0.005862489808        1.050789952278       -1.609339952469
32   1         -0.329688996077       -0.688584983349        1.833920001984
33   1          1.161980032921        0.811645984650        0.096409998834
34   1          0.275348007679       -0.274269014597       -0.828679025173
35   1         -0.307902008295        0.630222976208       -0.668420970440
36   1          0.098337098956        0.638644993305        0.299288004637
37   1          0.518498003483       -0.754429996014        0.123548999429
38   1          1.380949974060       -1.252900004387       -0.350699007511
