
     Program PWSCF v.6.6 starts on 27Oct2020 at 10:38:11 

     This program is part of the open-source Quantum ESPRESSO suite
     for quantum simulation of materials; please cite
         "P. Giannozzi et al., J. Phys.:Condens. Matter 21 395502 (2009);
         "P. Giannozzi et al., J. Phys.:Condens. Matter 29 465901 (2017);
          URL http://www.quantum-espresso.org", 
     in publications or presentations arising from this work. More details at
     http://www.quantum-espresso.org/quote

     Parallel version (MPI), running on     2 processors

     MPI processes distributed on     1 nodes
     R & G space division:  proc/nbgrp/npool/nimage =       2
     Fft bands division:     nmany     =       1
     Waiting for input...
     Reading input from standard input
Warning: card  &CELL ignored
Warning: card  / ignored

     Current dimensions of program PWSCF are:
     Max number of different atomic species (ntypx) = 10
     Max number of k-points (npk) =  40000
     Max angular momentum in pseudopotentials (lmaxx) =  3

     File /temp/matic/pw/Al-vacancy/al21-scf.fire deleted, as requested

     File /temp/matic/pw/Al-vacancy/al21-scf.artn deleted, as requested

     Subspace diagonalization in iterative solution of the eigenvalue problem:
     a serial algorithm will be used


     Parallelization info
     --------------------
     sticks:   dense  smooth     PW     G-vecs:    dense   smooth      PW
     Min         240     240     60                 3904     3904     474
     Max         241     241     61                 3905     3905     475
     Sum         481     481    121                 7809     7809     949



     bravais-lattice index     =            0
     lattice parameter (alat)  =       7.6534  a.u.
     unit-cell volume          =    3134.0813 (a.u.)^3
     number of atoms/cell      =           31
     number of atomic types    =            1
     number of electrons       =        93.00
     number of Kohn-Sham states=           56
     kinetic-energy cutoff     =       7.0000  Ry
     charge density cutoff     =      28.0000  Ry
     convergence threshold     =      1.0E-06
     mixing beta               =       0.5000
     number of iterations used =            8  local-TF  mixing
     Exchange-correlation=  SLA  PZ   NOGX NOGC
                           (   1   1   0   0   0   0   0)
     nstep                     =          200


     celldm(1)=   7.653391  celldm(2)=   0.000000  celldm(3)=   0.000000
     celldm(4)=   0.000000  celldm(5)=   0.000000  celldm(6)=   0.000000

     crystal axes: (cart. coord. in units of alat)
               a(1) = (   1.912125   0.000000   0.000000 )  
               a(2) = (   0.000000   1.912125   0.000000 )  
               a(3) = (   0.000000   0.000000   1.912125 )  

     reciprocal axes: (cart. coord. in units 2 pi/alat)
               b(1) = (  0.522978  0.000000  0.000000 )  
               b(2) = (  0.000000  0.522978  0.000000 )  
               b(3) = (  0.000000  0.000000  0.522978 )  


     PseudoPot. # 1 for Al read from file:
     /home/matic/pw/pseudo/Al.pz-vbc.UPF
     MD5 check sum: 614279c88ff8d45c90147292d03ed420
     Pseudo is Norm-conserving, Zval =  3.0
     Generated by new atomic code, or converted to UPF format
     Using radial grid of  171 points,  2 beta functions with: 
                l(1) =   0
                l(2) =   1

     atomic species   valence    mass     pseudopotential
        Al             3.00     1.00000     Al( 1.00)

     No symmetry found



   Cartesian axes

     site n.     atom                  positions (alat units)
         1           Al  tau(   1) = (  -0.0044246  -0.0000000  -0.0044246  )
         2           Al  tau(   2) = (   0.4780233   0.4824459  -0.0044239  )
         3           Al  tau(   3) = (  -0.0044239   0.4824459   0.4780233  )
         4           Al  tau(   4) = (   0.9604869  -0.0000000  -0.0044246  )
         5           Al  tau(   5) = (  -0.4780233   0.0000000   0.4780233  )
         6           Al  tau(   6) = (  -0.4780233   0.4805991  -0.0025797  )
         7           Al  tau(   7) = (   0.9604862   0.4824477   0.4780251  )
         8           Al  tau(   8) = (  -0.0025786   0.9560623  -0.0025786  )
         9           Al  tau(   9) = (   0.4780251   0.9560623   0.4780251  )
        10           Al  tau(  10) = (   0.4780233  -0.4824459  -0.0044239  )
        11           Al  tau(  11) = (  -0.0044239  -0.4824459   0.4780233  )
        12           Al  tau(  12) = (   0.9586409   0.9560623  -0.0025786  )
        13           Al  tau(  13) = (  -0.4780251   0.9560623   0.4780251  )
        14           Al  tau(  14) = (  -0.4780233  -0.4805991  -0.0025797  )
        15           Al  tau(  15) = (   0.9604862  -0.4824477   0.4780251  )
        16           Al  tau(  16) = (  -0.0044246  -0.0000000   0.9604869  )
        17           Al  tau(  17) = (   0.4780233   0.0000000  -0.4780233  )
        18           Al  tau(  18) = (   0.4780251   0.4824477   0.9604862  )
        19           Al  tau(  19) = (  -0.0025797   0.4805991  -0.4780233  )
        20           Al  tau(  20) = (   0.9604869  -0.0000000   0.9604869  )
        21           Al  tau(  21) = (  -0.4780233  -0.0000000  -0.4780233  )
        22           Al  tau(  22) = (  -0.4780251   0.4806009   0.9586420  )
        23           Al  tau(  23) = (   0.9586420   0.4806009  -0.4780251  )
        24           Al  tau(  24) = (  -0.0025786   0.9560623   0.9586409  )
        25           Al  tau(  25) = (   0.4780251   0.9560623  -0.4780251  )
        26           Al  tau(  26) = (   0.4780251  -0.4824477   0.9604862  )
        27           Al  tau(  27) = (  -0.0025797  -0.4805991  -0.4780233  )
        28           Al  tau(  28) = (   0.9586409   0.9560623   0.9586409  )
        29           Al  tau(  29) = (  -0.4780251   0.9560623  -0.4780251  )
        30           Al  tau(  30) = (  -0.4780251  -0.4806009   0.9586420  )
        31           Al  tau(  31) = (   0.9586420  -0.4806009  -0.4780251  )

     number of k points=     1  Marzari-Vanderbilt smearing, width (Ry)=  0.0500
                       cart. coord. in units 2pi/alat
        k(    1) = (   0.0000000   0.0000000   0.0000000), wk =   2.0000000

     Dense  grid:     7809 G-vectors     FFT dimensions: (  25,  25,  25)

     Estimated max dynamical RAM per process >       5.92 MB

     Estimated total dynamical RAM >      11.84 MB

     Initial potential from superposition of free atoms

     starting charge   92.93624, renormalised to   93.00000
     Starting wfcs are random

     total cpu time spent up to now is        0.1 secs

     Self-consistent Calculation

     iteration #  1     ecut=     7.00 Ry     beta= 0.50
     Davidson diagonalization with overlap
     ethr =  1.00E-02,  avg # of iterations =  8.0

     total cpu time spent up to now is        0.3 secs

     total energy              =    -127.14627382 Ry
     estimated scf accuracy    <       0.98421474 Ry

     iteration #  2     ecut=     7.00 Ry     beta= 0.50
     Davidson diagonalization with overlap
     ethr =  1.06E-03,  avg # of iterations =  4.0

     total cpu time spent up to now is        0.4 secs

     total energy              =    -127.15748121 Ry
     estimated scf accuracy    <       0.32519634 Ry

     iteration #  3     ecut=     7.00 Ry     beta= 0.50
     Davidson diagonalization with overlap
     ethr =  3.50E-04,  avg # of iterations =  3.0

     total cpu time spent up to now is        0.6 secs

     total energy              =    -127.20790818 Ry
     estimated scf accuracy    <       0.02925145 Ry

     iteration #  4     ecut=     7.00 Ry     beta= 0.50
     Davidson diagonalization with overlap
     ethr =  3.15E-05,  avg # of iterations =  9.0

     total cpu time spent up to now is        0.7 secs

     total energy              =    -127.20829565 Ry
     estimated scf accuracy    <       0.01130793 Ry

     iteration #  5     ecut=     7.00 Ry     beta= 0.50
     Davidson diagonalization with overlap
     ethr =  1.22E-05,  avg # of iterations =  3.0

     total cpu time spent up to now is        0.9 secs

     total energy              =    -127.20883953 Ry
     estimated scf accuracy    <       0.01607652 Ry

     iteration #  6     ecut=     7.00 Ry     beta= 0.50
     Davidson diagonalization with overlap
     ethr =  1.22E-05,  avg # of iterations =  2.0

     total cpu time spent up to now is        1.0 secs

     total energy              =    -127.21041498 Ry
     estimated scf accuracy    <       0.00010022 Ry

     iteration #  7     ecut=     7.00 Ry     beta= 0.50
     Davidson diagonalization with overlap
     ethr =  1.08E-07,  avg # of iterations =  5.0

     total cpu time spent up to now is        1.1 secs

     total energy              =    -127.21044559 Ry
     estimated scf accuracy    <       0.00049301 Ry

     iteration #  8     ecut=     7.00 Ry     beta= 0.50
     Davidson diagonalization with overlap
     ethr =  1.08E-07,  avg # of iterations =  3.0

     total cpu time spent up to now is        1.2 secs

     total energy              =    -127.21047255 Ry
     estimated scf accuracy    <       0.00002556 Ry

     iteration #  9     ecut=     7.00 Ry     beta= 0.50
     Davidson diagonalization with overlap
     ethr =  2.75E-08,  avg # of iterations =  3.0

     total cpu time spent up to now is        1.3 secs

     End of self-consistent calculation

          k = 0.0000 0.0000 0.0000 (   949 PWs)   bands (ev):

    -2.7933  -0.4699  -0.4699  -0.3968  -0.3968  -0.3967   0.0056   1.8586
     1.8586   1.8586   1.9041   1.9041   1.9093   1.9094   1.9094   2.1698
     2.1699   2.1699   2.8977   3.7945   4.0201   4.0201   4.0201   4.5566
     4.5566   4.5566   5.3470   5.8187   5.8187   5.8187   7.5583   7.5583
     7.8146   7.8147   7.8147   7.8170   7.8374   7.8374   7.8374   8.0033
     8.0033   8.0033   8.3151   8.3151   8.3151   8.7155   8.9386   8.9386
     8.9386   9.0684   9.0684  10.0203  10.0209  10.0457  10.0457  10.0460

     the Fermi energy is     8.7052 ev

!    total energy              =    -127.21047623 Ry
     estimated scf accuracy    <       0.00000030 Ry
     smearing contrib. (-TS)   =       0.08481440 Ry
     internal energy E=F+TS    =    -127.29529063 Ry

     convergence has been achieved in   9 iterations
 ARTn: initial READ at step:           0 Initial push T Perp relax: F Lanczos: F Good eigenvalue: F
 ARTn initial push at step:           0
 ARTn: Called displacement validation: with cone_dir:   1.0000000000000000        0.0000000000000000        1.0000000000000000      current push:  -6.0630180000000866E-003 -0.49959064300000011       0.42838835799999997     
 Finished displacement validation F
 ARTn: Called displacement validation: with cone_dir:   1.0000000000000000        0.0000000000000000        1.0000000000000000      current push:  0.42606380499999996       0.39409478599999997       -2.0969966999999978E-002
 Finished displacement validation F
 ARTn: Called displacement validation: with cone_dir:   1.0000000000000000        0.0000000000000000        1.0000000000000000      current push:  -9.4940200000000030E-002  0.10937731699999997       0.11707080999999997     
 Finished displacement validation F
 Starting ARTn with initial push:    1.5000000000000000        0.0000000000000000        1.5000000000000000        0.0000000000000000        0.0000000000000000        0.0000000000000000        0.0000000000000000        0.0000000000000000        0.0000000000000000        0.0000000000000000        0.0000000000000000        0.0000000000000000        0.0000000000000000        0.0000000000000000        0.0000000000000000        0.0000000000000000        0.0000000000000000        0.0000000000000000        0.0000000000000000        0.0000000000000000        0.0000000000000000        0.0000000000000000        0.0000000000000000        0.0000000000000000        0.0000000000000000        0.0000000000000000        0.0000000000000000        0.0000000000000000        0.0000000000000000        0.0000000000000000        0.0000000000000000        0.0000000000000000        0.0000000000000000        0.0000000000000000        0.0000000000000000        0.0000000000000000        0.0000000000000000        0.0000000000000000        0.0000000000000000        0.0000000000000000        0.0000000000000000        0.0000000000000000        0.0000000000000000        0.0000000000000000        0.0000000000000000        0.0000000000000000        0.0000000000000000        0.0000000000000000        0.0000000000000000        0.0000000000000000        0.0000000000000000        0.0000000000000000        0.0000000000000000        0.0000000000000000        0.0000000000000000        0.0000000000000000        0.0000000000000000        0.0000000000000000        0.0000000000000000        0.0000000000000000        0.0000000000000000        0.0000000000000000        0.0000000000000000        0.0000000000000000        0.0000000000000000        0.0000000000000000        0.0000000000000000        0.0000000000000000        0.0000000000000000        0.0000000000000000        0.0000000000000000        0.0000000000000000        0.0000000000000000        0.0000000000000000        0.0000000000000000        0.0000000000000000        0.0000000000000000        0.0000000000000000        0.0000000000000000        0.0000000000000000        0.0000000000000000        0.0000000000000000        0.0000000000000000        0.0000000000000000        0.0000000000000000        0.0000000000000000        0.0000000000000000        0.0000000000000000        0.0000000000000000        0.0000000000000000        0.0000000000000000        0.0000000000000000        0.0000000000000000     
ARTn Forces (Ry/a.u.):     Ftot =  0.000     Fperp =  0.000     Fpara =  0.000

     Forces acting on atoms (cartesian axes, Ry/au):

     atom    1 type  1   force =     1.50000000    0.00000000    1.50000000
     atom    2 type  1   force =     0.00000000    0.00000000    0.00000000
     atom    3 type  1   force =     0.00000000    0.00000000    0.00000000
     atom    4 type  1   force =     0.00000000    0.00000000    0.00000000
     atom    5 type  1   force =     0.00000000    0.00000000    0.00000000
     atom    6 type  1   force =     0.00000000    0.00000000    0.00000000
     atom    7 type  1   force =     0.00000000    0.00000000    0.00000000
     atom    8 type  1   force =     0.00000000    0.00000000    0.00000000
     atom    9 type  1   force =     0.00000000    0.00000000    0.00000000
     atom   10 type  1   force =     0.00000000    0.00000000    0.00000000
     atom   11 type  1   force =     0.00000000    0.00000000    0.00000000
     atom   12 type  1   force =     0.00000000    0.00000000    0.00000000
     atom   13 type  1   force =     0.00000000    0.00000000    0.00000000
     atom   14 type  1   force =     0.00000000    0.00000000    0.00000000
     atom   15 type  1   force =     0.00000000    0.00000000    0.00000000
     atom   16 type  1   force =     0.00000000    0.00000000    0.00000000
     atom   17 type  1   force =     0.00000000    0.00000000    0.00000000
     atom   18 type  1   force =     0.00000000    0.00000000    0.00000000
     atom   19 type  1   force =     0.00000000    0.00000000    0.00000000
     atom   20 type  1   force =     0.00000000    0.00000000    0.00000000
     atom   21 type  1   force =     0.00000000    0.00000000    0.00000000
     atom   22 type  1   force =     0.00000000    0.00000000    0.00000000
     atom   23 type  1   force =     0.00000000    0.00000000    0.00000000
     atom   24 type  1   force =     0.00000000    0.00000000    0.00000000
     atom   25 type  1   force =     0.00000000    0.00000000    0.00000000
     atom   26 type  1   force =     0.00000000    0.00000000    0.00000000
     atom   27 type  1   force =     0.00000000    0.00000000    0.00000000
     atom   28 type  1   force =     0.00000000    0.00000000    0.00000000
     atom   29 type  1   force =     0.00000000    0.00000000    0.00000000
     atom   30 type  1   force =     0.00000000    0.00000000    0.00000000
     atom   31 type  1   force =     0.00000000    0.00000000    0.00000000

     Total force =     2.121320     Total SCF correction =     0.000612

     Minimization using the FIRE algorithm
 FIRE if_pos:           1           1           1           1           1           1           1           1           1           1           1           1           1           1           1           1           1           1           1           1           1           1           1           1           1           1           1           1           1           1           1           1           1           1           1           1           1           1           1           1           1           1           1           1           1           1           1           1           1           1           1           1           1           1           1           1           1           1           1           1           1           1           1           1           1           1           1           1           1           1           1           1           1           1           1           1           1           1           1           1           1           1           1           1           1           1           1           1           1           1           1           1           1

     Entering FIRE :       iteration =     1

     Fire Parameters: P = 0.00645102, dt = 20.00, alpha = .100at step  1
 FIRE step:   5.5434784371905910E-002   0.0000000000000000        5.5434784371905910E-002   0.0000000000000000        0.0000000000000000        0.0000000000000000        0.0000000000000000        0.0000000000000000        0.0000000000000000        0.0000000000000000        0.0000000000000000        0.0000000000000000        0.0000000000000000        0.0000000000000000        0.0000000000000000        0.0000000000000000        0.0000000000000000        0.0000000000000000        0.0000000000000000        0.0000000000000000        0.0000000000000000        0.0000000000000000        0.0000000000000000        0.0000000000000000        0.0000000000000000        0.0000000000000000        0.0000000000000000        0.0000000000000000        0.0000000000000000        0.0000000000000000        0.0000000000000000        0.0000000000000000        0.0000000000000000        0.0000000000000000        0.0000000000000000        0.0000000000000000        0.0000000000000000        0.0000000000000000        0.0000000000000000        0.0000000000000000        0.0000000000000000        0.0000000000000000        0.0000000000000000        0.0000000000000000        0.0000000000000000        0.0000000000000000        0.0000000000000000        0.0000000000000000        0.0000000000000000        0.0000000000000000        0.0000000000000000        0.0000000000000000        0.0000000000000000        0.0000000000000000        0.0000000000000000        0.0000000000000000        0.0000000000000000        0.0000000000000000        0.0000000000000000        0.0000000000000000        0.0000000000000000        0.0000000000000000        0.0000000000000000        0.0000000000000000        0.0000000000000000        0.0000000000000000        0.0000000000000000        0.0000000000000000        0.0000000000000000        0.0000000000000000        0.0000000000000000        0.0000000000000000        0.0000000000000000        0.0000000000000000        0.0000000000000000        0.0000000000000000        0.0000000000000000        0.0000000000000000        0.0000000000000000        0.0000000000000000        0.0000000000000000        0.0000000000000000        0.0000000000000000        0.0000000000000000        0.0000000000000000        0.0000000000000000        0.0000000000000000        0.0000000000000000        0.0000000000000000        0.0000000000000000        0.0000000000000000        0.0000000000000000        0.0000000000000000     

ATOMIC_POSITIONS (angstrom)
Al            0.2065913902        0.0000000000        0.2065913902
Al            1.9359944404        1.9539058065       -0.0179168077
Al           -0.0179168077        1.9539058065        1.9359944404
Al            3.8899718704        0.0000000000       -0.0179194864
Al           -1.9359944404        0.0000000000        1.9359944404
Al           -1.9359944404        1.9464262267       -0.0104478500
Al            3.8899691917        1.9539131229        1.9360017568
Al           -0.0104433294        3.8720523840       -0.0104433294
Al            1.9360017568        3.8720523840        1.9360017568
Al            1.9359944404       -1.9539058065       -0.0179168077
Al           -0.0179168077       -1.9539058065        1.9359944404
Al            3.8824957134        3.8720523840       -0.0104433294
Al           -1.9360017568        3.8720523840        1.9360017568
Al           -1.9359944404       -1.9464262267       -0.0104478500
Al            3.8899691917       -1.9539131229        1.9360017568
Al           -0.0179194864        0.0000000000        3.8899718704
Al            1.9359944404        0.0000000000       -1.9359944404
Al            1.9360017568        1.9539131229        3.8899691917
Al           -0.0104478500        1.9464262267       -1.9359944404
Al            3.8899718704        0.0000000000        3.8899718704
Al           -1.9359944404        0.0000000000       -1.9359944404
Al           -1.9360017568        1.9464335431        3.8825002340
Al            3.8825002340        1.9464335431       -1.9360017568
Al           -0.0104433294        3.8720523840        3.8824957134
Al            1.9360017568        3.8720523840       -1.9360017568
Al            1.9360017568       -1.9539131229        3.8899691917
Al           -0.0104478500       -1.9464262267       -1.9359944404
Al            3.8824957134        3.8720523840        3.8824957134
Al           -1.9360017568        3.8720523840       -1.9360017568
Al           -1.9360017568       -1.9464335431        3.8825002340
Al            3.8825002340       -1.9464335431       -1.9360017568



     Writing output data file /temp/matic/pw/Al-vacancy/al21-scf.save/
     NEW-OLD atomic charge density approx. for the potential

     negative rho (up, down):  1.698E-04 0.000E+00

     total cpu time spent up to now is        1.4 secs

     Self-consistent Calculation

     iteration #  1     ecut=     7.00 Ry     beta= 0.50
     Davidson diagonalization with overlap
     c_bands:  1 eigenvalues not converged
     ethr =  1.00E-06,  avg # of iterations = 20.0

     total cpu time spent up to now is        1.8 secs

     total energy              =    -127.19868253 Ry
     estimated scf accuracy    <       0.04973290 Ry

     iteration #  2     ecut=     7.00 Ry     beta= 0.50
     Davidson diagonalization with overlap
     ethr =  5.35E-05,  avg # of iterations =  1.0

     total cpu time spent up to now is        1.9 secs

     total energy              =    -127.19709240 Ry
     estimated scf accuracy    <       0.01180452 Ry

     iteration #  3     ecut=     7.00 Ry     beta= 0.50
     Davidson diagonalization with overlap
     ethr =  1.27E-05,  avg # of iterations =  2.0

     total cpu time spent up to now is        2.0 secs

     total energy              =    -127.19903689 Ry
     estimated scf accuracy    <       0.00073931 Ry

     iteration #  4     ecut=     7.00 Ry     beta= 0.50
     Davidson diagonalization with overlap
     ethr =  7.95E-07,  avg # of iterations =  4.0

     total cpu time spent up to now is        2.1 secs

     total energy              =    -127.19905946 Ry
     estimated scf accuracy    <       0.00020987 Ry

     iteration #  5     ecut=     7.00 Ry     beta= 0.50
     Davidson diagonalization with overlap
     ethr =  2.26E-07,  avg # of iterations =  3.0

     total cpu time spent up to now is        2.3 secs

     total energy              =    -127.19908991 Ry
     estimated scf accuracy    <       0.00001638 Ry

     iteration #  6     ecut=     7.00 Ry     beta= 0.50
     Davidson diagonalization with overlap
     ethr =  1.76E-08,  avg # of iterations =  5.0

     total cpu time spent up to now is        2.4 secs

     total energy              =    -127.19908953 Ry
     estimated scf accuracy    <       0.00000627 Ry

     iteration #  7     ecut=     7.00 Ry     beta= 0.50
     Davidson diagonalization with overlap
     ethr =  6.74E-09,  avg # of iterations =  3.0

     total cpu time spent up to now is        2.5 secs

     total energy              =    -127.19909053 Ry
     estimated scf accuracy    <       0.00000646 Ry

     iteration #  8     ecut=     7.00 Ry     beta= 0.50
     Davidson diagonalization with overlap
     ethr =  6.74E-09,  avg # of iterations =  2.0

     total cpu time spent up to now is        2.6 secs

     End of self-consistent calculation

          k = 0.0000 0.0000 0.0000 (   949 PWs)   bands (ev):

    -2.7820  -0.4696  -0.4392  -0.3949  -0.3891  -0.3551  -0.0276   1.8603
     1.8805   1.8884   1.9007   1.9122   1.9129   1.9164   2.0244   2.1032
     2.1410   2.1796   2.8653   3.8049   4.0029   4.0136   4.0240   4.5560
     4.5616   4.5900   5.2812   5.8247   5.8247   5.8502   7.5491   7.5678
     7.7937   7.8096   7.8263   7.8378   7.8593   7.8987   7.9103   7.9112
     8.0162   8.0524   8.2896   8.3017   8.3027   8.7720   8.9290   8.9506
     8.9627   8.9905   9.0897  10.0208  10.0296  10.0494  10.0724  10.0892

     the Fermi energy is     8.7070 ev

!    total energy              =    -127.19909102 Ry
     estimated scf accuracy    <       0.00000008 Ry
     smearing contrib. (-TS)   =       0.08476575 Ry
     internal energy E=F+TS    =    -127.28385677 Ry

     convergence has been achieved in   8 iterations
 ARTn: initial READ at step:           1 Initial push F Perp relax: T Lanczos: F Good eigenvalue: F
 ARTn: perpedicular relax at step:           1
 ARTn Called perpmove, number of perp steps:           0
 ARTn: Perp relax out: dot(vel,push):   0.0000000000000000     
 ARTn: Perp relax out: dot(acc,push):   0.0000000000000000     
 ARTn: Dot product between push and perp force   0.0000000000000000     
 ARTn : reached convergence in perpendicular direction at step:           1 maxval of force was:   8.0621851943810732E-003
 ARTn: Continuing in push direction
ARTn Forces (Ry/a.u.):     Ftot =  0.043     Fperp =  0.026     Fpara = -0.073

     Forces acting on atoms (cartesian axes, Ry/au):

     atom    1 type  1   force =     1.50000000    0.00000000    1.50000000
     atom    2 type  1   force =     0.00000000    0.00000000    0.00000000
     atom    3 type  1   force =     0.00000000    0.00000000    0.00000000
     atom    4 type  1   force =     0.00000000    0.00000000    0.00000000
     atom    5 type  1   force =     0.00000000    0.00000000    0.00000000
     atom    6 type  1   force =     0.00000000    0.00000000    0.00000000
     atom    7 type  1   force =     0.00000000    0.00000000    0.00000000
     atom    8 type  1   force =     0.00000000    0.00000000    0.00000000
     atom    9 type  1   force =     0.00000000    0.00000000    0.00000000
     atom   10 type  1   force =     0.00000000    0.00000000    0.00000000
     atom   11 type  1   force =     0.00000000    0.00000000    0.00000000
     atom   12 type  1   force =     0.00000000    0.00000000    0.00000000
     atom   13 type  1   force =     0.00000000    0.00000000    0.00000000
     atom   14 type  1   force =     0.00000000    0.00000000    0.00000000
     atom   15 type  1   force =     0.00000000    0.00000000    0.00000000
     atom   16 type  1   force =     0.00000000    0.00000000    0.00000000
     atom   17 type  1   force =     0.00000000    0.00000000    0.00000000
     atom   18 type  1   force =     0.00000000    0.00000000    0.00000000
     atom   19 type  1   force =     0.00000000    0.00000000    0.00000000
     atom   20 type  1   force =     0.00000000    0.00000000    0.00000000
     atom   21 type  1   force =     0.00000000    0.00000000    0.00000000
     atom   22 type  1   force =     0.00000000    0.00000000    0.00000000
     atom   23 type  1   force =     0.00000000    0.00000000    0.00000000
     atom   24 type  1   force =     0.00000000    0.00000000    0.00000000
     atom   25 type  1   force =     0.00000000    0.00000000    0.00000000
     atom   26 type  1   force =     0.00000000    0.00000000    0.00000000
     atom   27 type  1   force =     0.00000000    0.00000000    0.00000000
     atom   28 type  1   force =     0.00000000    0.00000000    0.00000000
     atom   29 type  1   force =     0.00000000    0.00000000    0.00000000
     atom   30 type  1   force =     0.00000000    0.00000000    0.00000000
     atom   31 type  1   force =     0.00000000    0.00000000    0.00000000

     Total force =     2.121320     Total SCF correction =     0.000362
 FIRE if_pos:           1           1           1           1           1           1           1           1           1           1           1           1           1           1           1           1           1           1           1           1           1           1           1           1           1           1           1           1           1           1           1           1           1           1           1           1           1           1           1           1           1           1           1           1           1           1           1           1           1           1           1           1           1           1           1           1           1           1           1           1           1           1           1           1           1           1           1           1           1           1           1           1           1           1           1           1           1           1           1           1           1           1           1           1           1           1           1           1           1           1           1           1           1

     Entering FIRE :       iteration =     2

     Fire Parameters: P = 0.00645102, dt = 20.00, alpha = .100at step  2
 FIRE step:   5.5434784371905910E-002   0.0000000000000000        5.5434784371905910E-002   0.0000000000000000        0.0000000000000000        0.0000000000000000        0.0000000000000000        0.0000000000000000        0.0000000000000000        0.0000000000000000        0.0000000000000000        0.0000000000000000        0.0000000000000000        0.0000000000000000        0.0000000000000000        0.0000000000000000        0.0000000000000000        0.0000000000000000        0.0000000000000000        0.0000000000000000        0.0000000000000000        0.0000000000000000        0.0000000000000000        0.0000000000000000        0.0000000000000000        0.0000000000000000        0.0000000000000000        0.0000000000000000        0.0000000000000000        0.0000000000000000        0.0000000000000000        0.0000000000000000        0.0000000000000000        0.0000000000000000        0.0000000000000000        0.0000000000000000        0.0000000000000000        0.0000000000000000        0.0000000000000000        0.0000000000000000        0.0000000000000000        0.0000000000000000        0.0000000000000000        0.0000000000000000        0.0000000000000000        0.0000000000000000        0.0000000000000000        0.0000000000000000        0.0000000000000000        0.0000000000000000        0.0000000000000000        0.0000000000000000        0.0000000000000000        0.0000000000000000        0.0000000000000000        0.0000000000000000        0.0000000000000000        0.0000000000000000        0.0000000000000000        0.0000000000000000        0.0000000000000000        0.0000000000000000        0.0000000000000000        0.0000000000000000        0.0000000000000000        0.0000000000000000        0.0000000000000000        0.0000000000000000        0.0000000000000000        0.0000000000000000        0.0000000000000000        0.0000000000000000        0.0000000000000000        0.0000000000000000        0.0000000000000000        0.0000000000000000        0.0000000000000000        0.0000000000000000        0.0000000000000000        0.0000000000000000        0.0000000000000000        0.0000000000000000        0.0000000000000000        0.0000000000000000        0.0000000000000000        0.0000000000000000        0.0000000000000000        0.0000000000000000        0.0000000000000000        0.0000000000000000        0.0000000000000000        0.0000000000000000        0.0000000000000000     

ATOMIC_POSITIONS (angstrom)
Al            0.4311022667        0.0000000000        0.4311022667
Al            1.9359944404        1.9539058065       -0.0179168077
Al           -0.0179168077        1.9539058065        1.9359944404
Al            3.8899718704        0.0000000000       -0.0179194864
Al           -1.9359944404        0.0000000000        1.9359944404
Al           -1.9359944404        1.9464262267       -0.0104478500
Al            3.8899691917        1.9539131229        1.9360017568
Al           -0.0104433294        3.8720523840       -0.0104433294
Al            1.9360017568        3.8720523840        1.9360017568
Al            1.9359944404       -1.9539058065       -0.0179168077
Al           -0.0179168077       -1.9539058065        1.9359944404
Al            3.8824957134        3.8720523840       -0.0104433294
Al           -1.9360017568        3.8720523840        1.9360017568
Al           -1.9359944404       -1.9464262267       -0.0104478500
Al            3.8899691917       -1.9539131229        1.9360017568
Al           -0.0179194864        0.0000000000        3.8899718704
Al            1.9359944404        0.0000000000       -1.9359944404
Al            1.9360017568        1.9539131229        3.8899691917
Al           -0.0104478500        1.9464262267       -1.9359944404
Al            3.8899718704        0.0000000000        3.8899718704
Al           -1.9359944404        0.0000000000       -1.9359944404
Al           -1.9360017568        1.9464335431        3.8825002340
Al            3.8825002340        1.9464335431       -1.9360017568
Al           -0.0104433294        3.8720523840        3.8824957134
Al            1.9360017568        3.8720523840       -1.9360017568
Al            1.9360017568       -1.9539131229        3.8899691917
Al           -0.0104478500       -1.9464262267       -1.9359944404
Al            3.8824957134        3.8720523840        3.8824957134
Al           -1.9360017568        3.8720523840       -1.9360017568
Al           -1.9360017568       -1.9464335431        3.8825002340
Al            3.8825002340       -1.9464335431       -1.9360017568



     Writing output data file /temp/matic/pw/Al-vacancy/al21-scf.save/
     NEW-OLD atomic charge density approx. for the potential

     negative rho (up, down):  9.768E-06 0.000E+00

     total cpu time spent up to now is        2.7 secs

     Self-consistent Calculation

     iteration #  1     ecut=     7.00 Ry     beta= 0.50
     Davidson diagonalization with overlap
     ethr =  1.00E-06,  avg # of iterations =  9.0

     total cpu time spent up to now is        2.9 secs

     total energy              =    -127.17268849 Ry
     estimated scf accuracy    <       0.03793840 Ry

     iteration #  2     ecut=     7.00 Ry     beta= 0.50
     Davidson diagonalization with overlap
     ethr =  4.08E-05,  avg # of iterations =  1.0

     total cpu time spent up to now is        3.0 secs

     total energy              =    -127.17156948 Ry
     estimated scf accuracy    <       0.00919146 Ry

     iteration #  3     ecut=     7.00 Ry     beta= 0.50
     Davidson diagonalization with overlap
     ethr =  9.88E-06,  avg # of iterations =  3.0

     total cpu time spent up to now is        3.1 secs

     total energy              =    -127.17304403 Ry
     estimated scf accuracy    <       0.00058567 Ry

     iteration #  4     ecut=     7.00 Ry     beta= 0.50
     Davidson diagonalization with overlap
     ethr =  6.30E-07,  avg # of iterations =  2.0

     total cpu time spent up to now is        3.2 secs

     total energy              =    -127.17305141 Ry
     estimated scf accuracy    <       0.00016449 Ry

     iteration #  5     ecut=     7.00 Ry     beta= 0.50
     Davidson diagonalization with overlap
     ethr =  1.77E-07,  avg # of iterations =  3.0

     total cpu time spent up to now is        3.3 secs

     total energy              =    -127.17307679 Ry
     estimated scf accuracy    <       0.00001306 Ry

     iteration #  6     ecut=     7.00 Ry     beta= 0.50
     Davidson diagonalization with overlap
     ethr =  1.40E-08,  avg # of iterations =  5.0

     total cpu time spent up to now is        3.5 secs

     total energy              =    -127.17307823 Ry
     estimated scf accuracy    <       0.00000215 Ry

     iteration #  7     ecut=     7.00 Ry     beta= 0.50
     Davidson diagonalization with overlap
     ethr =  2.31E-09,  avg # of iterations =  4.0

     total cpu time spent up to now is        3.7 secs

     total energy              =    -127.17307825 Ry
     estimated scf accuracy    <       0.00000289 Ry

     iteration #  8     ecut=     7.00 Ry     beta= 0.50
     Davidson diagonalization with overlap
     ethr =  2.31E-09,  avg # of iterations =  3.0

     total cpu time spent up to now is        3.9 secs

     End of self-consistent calculation

          k = 0.0000 0.0000 0.0000 (   949 PWs)   bands (ev):

    -2.7748  -0.4643  -0.4405  -0.3934  -0.3846  -0.3089  -0.0636   1.8662
     1.8742   1.8846   1.9068   1.9120   1.9155   1.9422   2.0367   2.1122
     2.1381   2.1808   2.8327   3.8211   3.9773   4.0108   4.0197   4.5387
     4.5674   4.6698   5.1931   5.8239   5.8376   5.8813   7.5082   7.5824
     7.7573   7.7959   7.8144   7.8361   7.8384   7.9142   7.9211   7.9554
     8.0313   8.1289   8.2839   8.2999   8.3022   8.7447   8.9142   8.9310
     8.9864   8.9989   9.1172   9.9370  10.0485  10.0555  10.0607  10.1532

     the Fermi energy is     8.7116 ev

!    total energy              =    -127.17307854 Ry
     estimated scf accuracy    <       0.00000013 Ry
     smearing contrib. (-TS)   =       0.08025737 Ry
     internal energy E=F+TS    =    -127.25333592 Ry

     convergence has been achieved in   8 iterations
 ARTn: initial READ at step:           2 Initial push F Perp relax: T Lanczos: F Good eigenvalue: F
 ARTn: perpedicular relax at step:           2
 ARTn Called perpmove, number of perp steps:           0
 ARTn: Perp relax out: dot(vel,push):   0.0000000000000000     
 ARTn: Perp relax out: dot(acc,push):   0.0000000000000000     
 ARTn: Dot product between push and perp force   1.0408340855860843E-017
ARTn Forces (Ry/a.u.):     Ftot =  0.075     Fperp =  0.056     Fpara = -0.104

     Forces acting on atoms (cartesian axes, Ry/au):

     atom    1 type  1   force =    -0.00000005    0.00000005    0.00000005
     atom    2 type  1   force =     0.01314259    0.02063913   -0.00445413
     atom    3 type  1   force =    -0.00445469    0.02063901    0.01314270
     atom    4 type  1   force =    -0.00252723   -0.00000005    0.00187865
     atom    5 type  1   force =     0.00497368    0.00000011    0.00004303
     atom    6 type  1   force =     0.00435559   -0.00398974   -0.00187123
     atom    7 type  1   force =    -0.00178336   -0.00171868    0.00191650
     atom    8 type  1   force =     0.00210452    0.00000002    0.00210464
     atom    9 type  1   force =    -0.00066342   -0.00000009   -0.00066329
     atom   10 type  1   force =     0.01314265   -0.02063908   -0.00445407
     atom   11 type  1   force =    -0.00445455   -0.02063898    0.01314256
     atom   12 type  1   force =    -0.00734891   -0.00000011   -0.00124797
     atom   13 type  1   force =     0.00571938    0.00000024    0.00526169
     atom   14 type  1   force =     0.00435559    0.00398970   -0.00187108
     atom   15 type  1   force =    -0.00178339    0.00171889    0.00191642
     atom   16 type  1   force =     0.00187787   -0.00000008   -0.00252760
     atom   17 type  1   force =     0.00004259   -0.00000014    0.00497391
     atom   18 type  1   force =     0.00191650   -0.00171772   -0.00178382
     atom   19 type  1   force =    -0.00187130   -0.00398943    0.00435560
     atom   20 type  1   force =    -0.00412216    0.00000006   -0.00412282
     atom   21 type  1   force =     0.00620577   -0.00000001    0.00620593
     atom   22 type  1   force =     0.00300285    0.00259485   -0.00171088
     atom   23 type  1   force =    -0.00171013    0.00259509    0.00300278
     atom   24 type  1   force =    -0.00124823   -0.00000011   -0.00734931
     atom   25 type  1   force =     0.00526150    0.00000000    0.00571975
     atom   26 type  1   force =     0.00191654    0.00171769   -0.00178384
     atom   27 type  1   force =    -0.00187133    0.00398943    0.00435558
     atom   28 type  1   force =     0.00096672   -0.00000009    0.00096627
     atom   29 type  1   force =    -0.00165402   -0.00000002   -0.00165372
     atom   30 type  1   force =     0.00300275   -0.00259488   -0.00171077
     atom   31 type  1   force =    -0.00171018   -0.00259507    0.00300264

     Total force =     0.056311     Total SCF correction =     0.000493
 FIRE if_pos:           1           1           1           1           1           1           1           1           1           1           1           1           1           1           1           1           1           1           1           1           1           1           1           1           1           1           1           1           1           1           1           1           1           1           1           1           1           1           1           1           1           1           1           1           1           1           1           1           1           1           1           1           1           1           1           1           1           1           1           1           1           1           1           1           1           1           1           1           1           1           1           1           1           1           1           1           1           1           1           1           1           1           1           1           1           1           1           1           1           1           1           1           1

     Entering FIRE :       iteration =     3

     Fire Parameters: P = 0.00000455, dt = 20.00, alpha = .100at step  3
 FIRE step:  -3.0215632246374036E-009   2.7301243112721724E-009   3.0215632250352965E-009   7.5362808113648815E-004   1.1834978351510544E-003  -2.5541072314421841E-004  -2.5544246434871869E-004   1.1834906109028911E-003   7.5363418108937146E-004  -1.4491735420003703E-004  -2.9298687212621052E-009   1.0772613293633289E-004   2.8520285301143083E-004   6.2875740036014820E-009   2.4672168300887620E-006   2.4976018360575432E-004  -2.2878126658298732E-004  -1.0730095646714102E-004  -1.0226225033829146E-004  -9.8553518088485175E-005   1.0989702250295518E-004   1.2067818330186843E-004   1.2570272165170793E-009   1.2068504241390163E-004  -3.8041896697291496E-005  -4.8988377432269038E-009  -3.8034806340289917E-005   7.5363120462685219E-004  -1.1834946093846018E-003  -2.5540703451715614E-004  -2.5543451437125340E-004  -1.1834891895492246E-003   7.5362591163943295E-004  -4.2140401393222528E-004  -6.5135141653108760E-009  -7.1561892598068824E-005   3.2796292218380263E-004   1.3930462722756668E-008   3.0171815273826873E-004   2.4975995594164014E-004   2.2877908061175813E-004  -1.0729234036324575E-004  -1.0226364706432178E-004   9.8565116818261880E-005   1.0989234665094331E-004   1.0768147218341033E-004  -4.6677623998649325E-009  -1.4493888285694437E-004   2.4419622280063098E-006  -7.8165930331654484E-009   2.8521624349173418E-004   1.0989669236757317E-004  -9.8497964120212420E-005  -1.0228843022583142E-004  -1.0730489511202205E-004  -2.2876355846726697E-004   2.4976075871816872E-004  -2.3637439117938505E-004   3.6541568599866822E-009  -2.3641245508195863E-004   3.5585365113788715E-004  -4.1414131197233982E-010   3.5586301432951088E-004   1.7219091790769491E-004   1.4879509937230505E-004  -9.8105862710479467E-005  -9.8062917829953557E-005   1.4880883818552910E-004   1.7218648438714629E-004  -7.1576286760458024E-005  -6.3569286962498550E-009  -4.2142705889623147E-004   3.0170708891520573E-004   3.9193447060186633E-011   3.2798402181679948E-004   1.0989892449683478E-004   9.8496286125493660E-005  -1.0228942473270878E-004  -1.0730642786203819E-004   2.2876340103136056E-004   2.4975927170061145E-004   5.5434083797924944E-005  -4.9621732837322656E-009   5.5408289283356427E-005  -9.4845767769368214E-005  -9.9805442906068923E-010  -9.4828408536246642E-005   1.7218508186052698E-004  -1.4879695856872863E-004  -9.8099485781947529E-005  -9.8065572329827713E-005  -1.4880754410192439E-004   1.7217848750510501E-004

ATOMIC_POSITIONS (angstrom)
Al            0.4311022545        0.0000000111        0.4311022790
Al            1.9390466341        1.9586989727       -0.0189512211
Al           -0.0189513497        1.9586989435        1.9390466588
Al            3.8893849551       -0.0000000119       -0.0174831956
Al           -1.9348393688        0.0000000255        1.9360044326
Al           -1.9349829117        1.9454996626       -0.0108824189
Al            3.8895550296        1.9535139812        1.9364468397
Al           -0.0099545828        3.8720523891       -0.0099545550
Al            1.9358476871        3.8720523642        1.9358477158
Al            1.9390466468       -1.9586989597       -0.0189512062
Al           -0.0189513175       -1.9586989377        1.9390466253
Al            3.8807890271        3.8720523576       -0.0107331551
Al           -1.9346735070        3.8720524404        1.9372237153
Al           -1.9349829126       -1.9454996714       -0.0108823840
Al            3.8895550239       -1.9535139342        1.9364468208
Al           -0.0174833764       -0.0000000189        3.8893848679
Al            1.9360043303       -0.0000000317       -1.9348393146
Al            1.9364468384        1.9535142061        3.8895549236
Al           -0.0108824348        1.9454997343       -1.9349829093
Al            3.8890145541        0.0000000148        3.8890144000
Al           -1.9345532331       -0.0000000017       -1.9345531952
Al           -1.9353043836        1.9470361633        3.8821029053
Al            3.8821030792        1.9470362189       -1.9353044015
Al           -0.0107332134        3.8720523583        3.8807889338
Al            1.9372236705        3.8720523842       -1.9346734215
Al            1.9364468474       -1.9535142129        3.8895549195
Al           -0.0108824410       -1.9454997349       -1.9349829154
Al            3.8827202214        3.8720523639        3.8827201170
Al           -1.9363858822        3.8720523800       -1.9363858119
Al           -1.9353044072       -1.9470361708        3.8821029311
Al            3.8821030684       -1.9470362137       -1.9353044339



     Writing output data file /temp/matic/pw/Al-vacancy/al21-scf.save/
     NEW-OLD atomic charge density approx. for the potential

     total cpu time spent up to now is        3.9 secs

     Self-consistent Calculation

     iteration #  1     ecut=     7.00 Ry     beta= 0.50
     Davidson diagonalization with overlap
     ethr =  1.00E-06,  avg # of iterations =  4.0

     total cpu time spent up to now is        4.1 secs

     total energy              =    -127.17441519 Ry
     estimated scf accuracy    <       0.00014036 Ry

     iteration #  2     ecut=     7.00 Ry     beta= 0.50
     Davidson diagonalization with overlap
     ethr =  1.51E-07,  avg # of iterations =  2.0

     total cpu time spent up to now is        4.2 secs

     total energy              =    -127.17440191 Ry
     estimated scf accuracy    <       0.00005639 Ry

     iteration #  3     ecut=     7.00 Ry     beta= 0.50
     Davidson diagonalization with overlap
     ethr =  6.06E-08,  avg # of iterations =  3.0

     total cpu time spent up to now is        4.3 secs

     total energy              =    -127.17441318 Ry
     estimated scf accuracy    <       0.00000693 Ry

     iteration #  4     ecut=     7.00 Ry     beta= 0.50
     Davidson diagonalization with overlap
     ethr =  7.45E-09,  avg # of iterations =  4.0

     total cpu time spent up to now is        4.4 secs

     total energy              =    -127.17441381 Ry
     estimated scf accuracy    <       0.00000130 Ry

     iteration #  5     ecut=     7.00 Ry     beta= 0.50
     Davidson diagonalization with overlap
     ethr =  1.39E-09,  avg # of iterations =  4.0

     total cpu time spent up to now is        4.5 secs

     total energy              =    -127.17441360 Ry
     estimated scf accuracy    <       0.00000302 Ry

     iteration #  6     ecut=     7.00 Ry     beta= 0.50
     Davidson diagonalization with overlap
     ethr =  1.39E-09,  avg # of iterations =  3.0

     total cpu time spent up to now is        4.6 secs

     End of self-consistent calculation

          k = 0.0000 0.0000 0.0000 (   949 PWs)   bands (ev):

    -2.7747  -0.4666  -0.4399  -0.3933  -0.3844  -0.3073  -0.0615   1.8658
     1.8780   1.8790   1.9074   1.9129   1.9170   1.9442   2.0376   2.1147
     2.1327   2.1800   2.8326   3.8230   3.9798   4.0120   4.0199   4.5381
     4.5676   4.6696   5.1959   5.8233   5.8373   5.8779   7.5070   7.5821
     7.7578   7.8017   7.8098   7.8368   7.8386   7.9158   7.9165   7.9571
     8.0334   8.1261   8.2871   8.2988   8.3029   8.7438   8.9149   8.9319
     8.9873   8.9997   9.1189   9.9468  10.0469  10.0547  10.0653  10.1526

     the Fermi energy is     8.7120 ev

!    total energy              =    -127.17441393 Ry
     estimated scf accuracy    <       0.00000003 Ry
     smearing contrib. (-TS)   =       0.08037309 Ry
     internal energy E=F+TS    =    -127.25478703 Ry

     convergence has been achieved in   6 iterations
 ARTn: initial READ at step:           3 Initial push F Perp relax: T Lanczos: F Good eigenvalue: F
 ARTn: perpedicular relax at step:           3
 ARTn Called perpmove, number of perp steps:           1
 ARTn: Perp relax out: dot(vel,push):  -1.2924697071141057E-026
 ARTn: Perp relax out: dot(acc,push):   3.2311742677852644E-027
 ARTn: Dot product between push and perp force   1.0408340855860843E-017
ARTn Forces (Ry/a.u.):     Ftot =  0.071     Fperp =  0.052     Fpara = -0.101

     Forces acting on atoms (cartesian axes, Ry/au):

     atom    1 type  1   force =    -0.00000002    0.00000000    0.00000002
     atom    2 type  1   force =     0.01202598    0.01924680   -0.00402361
     atom    3 type  1   force =    -0.00402366    0.01924684    0.01202597
     atom    4 type  1   force =    -0.00242736    0.00000000    0.00196081
     atom    5 type  1   force =     0.00476019   -0.00000000    0.00006560
     atom    6 type  1   force =     0.00413273   -0.00364086   -0.00155927
     atom    7 type  1   force =    -0.00148674   -0.00149019    0.00179098
     atom    8 type  1   force =     0.00195555   -0.00000002    0.00195564
     atom    9 type  1   force =    -0.00048054    0.00000001   -0.00048059
     atom   10 type  1   force =     0.01202599   -0.01924680   -0.00402362
     atom   11 type  1   force =    -0.00402364   -0.01924685    0.01202599
     atom   12 type  1   force =    -0.00633382    0.00000001   -0.00080856
     atom   13 type  1   force =     0.00488242   -0.00000002    0.00461544
     atom   14 type  1   force =     0.00413272    0.00364088   -0.00155926
     atom   15 type  1   force =    -0.00148671    0.00149022    0.00179098
     atom   16 type  1   force =     0.00196081    0.00000000   -0.00242737
     atom   17 type  1   force =     0.00006576    0.00000001    0.00476030
     atom   18 type  1   force =     0.00179132   -0.00149037   -0.00148723
     atom   19 type  1   force =    -0.00155931   -0.00364093    0.00413273
     atom   20 type  1   force =    -0.00359375    0.00000002   -0.00359372
     atom   21 type  1   force =     0.00562016    0.00000000    0.00562019
     atom   22 type  1   force =     0.00255461    0.00237732   -0.00131268
     atom   23 type  1   force =    -0.00131300    0.00237746    0.00255505
     atom   24 type  1   force =    -0.00080859   -0.00000000   -0.00633384
     atom   25 type  1   force =     0.00461555   -0.00000002    0.00488254
     atom   26 type  1   force =     0.00179132    0.00149036   -0.00148729
     atom   27 type  1   force =    -0.00155930    0.00364093    0.00413275
     atom   28 type  1   force =     0.00092458   -0.00000002    0.00092451
     atom   29 type  1   force =    -0.00155576   -0.00000001   -0.00155572
     atom   30 type  1   force =     0.00255463   -0.00237732   -0.00131269
     atom   31 type  1   force =    -0.00131302   -0.00237747    0.00255505

     Total force =     0.051793     Total SCF correction =     0.000175
 FIRE if_pos:           1           1           1           1           1           1           1           1           1           1           1           1           1           1           1           1           1           1           1           1           1           1           1           1           1           1           1           1           1           1           1           1           1           1           1           1           1           1           1           1           1           1           1           1           1           1           1           1           1           1           1           1           1           1           1           1           1           1           1           1           1           1           1           1           1           1           1           1           1           1           1           1           1           1           1           1           1           1           1           1           1           1           1           1           1           1           1           1           1           1           1           1           1

     Entering FIRE :       iteration =     4

     Fire Parameters: P = 0.00001220, dt = 20.00, alpha = .100at step  4
 FIRE step:  -3.7101463940639093E-009   2.7581332203568210E-009   3.7101463945050567E-009   1.4428288623807674E-003   2.2887829547376696E-003  -4.8567504838922023E-004  -4.8570678035211992E-004   2.2887788103126841E-003   1.4428342901776090E-003  -2.8474742250246115E-004  -2.3933974167623900E-009   2.2161378689498375E-004   5.5931647432485340E-004   5.5613383680877347E-009   6.3907759209079759E-006   4.8752654532867670E-004  -4.3737478076317094E-004  -1.9570277992297876E-004  -1.8655688269407288E-004  -1.8343880936510197E-004   2.1277098460472361E-004   2.3293650319013343E-004  -2.7888155419195675E-010   2.3294829770703171E-004  -6.4788234317141160E-005  -3.4964364116029568E-009  -6.4785037434443265E-005   1.4428329166493276E-003  -2.2887797734609007E-003  -4.8567175157582216E-004  -4.8569781274593793E-004  -2.2887780752657329E-003   1.4428280633006240E-003  -7.8194234891660187E-004  -4.9661577442043833E-009  -1.1581082640715098E-004   6.0557133248365503E-004   1.1048591019845251E-008   5.6497785080010163E-004   4.8752568727918229E-004   4.3737403141674505E-004  -1.9569492691767868E-004  -1.8655625122371045E-004   1.8345070242502628E-004   2.1276630706707137E-004   2.2157367528660387E-004  -3.9706695384941892E-009  -2.8476767530456547E-004   6.3786006546707292E-006  -6.2534494326693212E-009   5.5933568220295883E-004   2.1279195508465797E-004  -1.8340024538433854E-004  -1.8661184246567686E-004  -1.9570910896224262E-004  -4.3736313362000977E-004   4.8752718340666678E-004  -4.4121330475204102E-004   4.2848460256212657E-009  -4.4124540357724963E-004   6.7757560405822047E-004  -3.2766725356857475E-010   6.7758614447697475E-004   3.1738384220958855E-004   2.8505634025050583E-004  -1.7175052946843822E-004  -1.7173170014542024E-004   2.8507739524414726E-004   3.1740794433046416E-004  -1.1582538288685377E-004  -5.8876644587877452E-009  -7.8196475895010872E-004   5.6497450928776928E-004  -9.1848010528807296E-010   6.0559811676756854E-004   2.1279404755893540E-004   1.8339809801654687E-004  -1.8661618213908234E-004  -1.9571009599436879E-004   4.3736305650243247E-004   4.8752691993381137E-004   1.0867182738114643E-004  -5.7684433338006320E-009   1.0864420925033315E-004  -1.8427034179278285E-004  -1.3622297414604976E-009  -1.8425177513009037E-004   3.1738000646567969E-004  -2.8505772663894462E-004  -1.7174499309497864E-004  -1.7173576884599466E-004  -2.8507687383920146E-004   3.1740050713498398E-004

ATOMIC_POSITIONS (angstrom)
Al            0.4311022395        0.0000000222        0.4311022940
Al            1.9448900910        1.9679685437       -0.0209182051
Al           -0.0209184621        1.9679684976        1.9448901377
Al            3.8882317281       -0.0000000216       -0.0165856597
Al           -1.9325741371        0.0000000480        1.9360303153
Al           -1.9330084291        1.9437282947       -0.0116750151
Al            3.8887994742        1.9527710540        1.9373085622
Al           -0.0090111899        3.8720523880       -0.0090111144
Al            1.9355852948        3.8720523500        1.9355853364
Al            1.9448901201       -1.9679685177       -0.0209181768
Al           -0.0209183936       -1.9679684889        1.9448900790
Al            3.8776221606        3.8720523375       -0.0112021889
Al           -1.9322209431        3.8720524852        1.9395118756
Al           -1.9330084335       -1.9437283066       -0.0116749484
Al            3.8887994711       -1.9527709588        1.9373085243
Al           -0.0165860031       -0.0000000350        3.8882315588
Al            1.9360301637       -0.0000000570       -1.9325740051
Al            1.9373086458        1.9527714352        3.8887991456
Al           -0.0116750567        1.9437284136       -1.9330084242
Al            3.8872276402        0.0000000322        3.8872273561
Al           -1.9318090519       -0.0000000030       -1.9318089713
Al           -1.9340189790        1.9481906414        3.8814073156
Al            3.8814075658        1.9481907823       -1.9340188994
Al           -0.0112023062        3.8720523344        3.8776219765
Al            1.9395118173        3.8720523804       -1.9322207491
Al            1.9373086633       -1.9527714506        3.8887991240
Al           -0.0116750669       -1.9437284145       -1.9330084313
Al            3.8831603423        3.8720523405        3.8831601260
Al           -1.9371321770        3.8720523744       -1.9371320315
Al           -1.9340190182       -1.9481906546        3.8814073639
Al            3.8814075386       -1.9481907750       -1.9340189619



     Writing output data file /temp/matic/pw/Al-vacancy/al21-scf.save/
     NEW-OLD atomic charge density approx. for the potential

     total cpu time spent up to now is        4.7 secs

     Self-consistent Calculation

     iteration #  1     ecut=     7.00 Ry     beta= 0.50
     Davidson diagonalization with overlap
     ethr =  1.00E-06,  avg # of iterations =  5.0

     total cpu time spent up to now is        4.9 secs

     total energy              =    -127.17667009 Ry
     estimated scf accuracy    <       0.00065795 Ry

     iteration #  2     ecut=     7.00 Ry     beta= 0.50
     Davidson diagonalization with overlap
     ethr =  7.07E-07,  avg # of iterations =  1.0

     total cpu time spent up to now is        4.9 secs

     total energy              =    -127.17662402 Ry
     estimated scf accuracy    <       0.00020376 Ry

     iteration #  3     ecut=     7.00 Ry     beta= 0.50
     Davidson diagonalization with overlap
     ethr =  2.19E-07,  avg # of iterations =  3.0

     total cpu time spent up to now is        5.0 secs

     total energy              =    -127.17666359 Ry
     estimated scf accuracy    <       0.00002205 Ry

     iteration #  4     ecut=     7.00 Ry     beta= 0.50
     Davidson diagonalization with overlap
     ethr =  2.37E-08,  avg # of iterations =  3.0

     total cpu time spent up to now is        5.2 secs

     total energy              =    -127.17666415 Ry
     estimated scf accuracy    <       0.00000425 Ry

     iteration #  5     ecut=     7.00 Ry     beta= 0.50
     Davidson diagonalization with overlap
     ethr =  4.57E-09,  avg # of iterations =  4.0

     total cpu time spent up to now is        5.3 secs

     total energy              =    -127.17666405 Ry
     estimated scf accuracy    <       0.00001404 Ry

     iteration #  6     ecut=     7.00 Ry     beta= 0.50
     Davidson diagonalization with overlap
     ethr =  4.57E-09,  avg # of iterations =  3.0

     total cpu time spent up to now is        5.4 secs

     End of self-consistent calculation

          k = 0.0000 0.0000 0.0000 (   949 PWs)   bands (ev):

    -2.7747  -0.4722  -0.4394  -0.3920  -0.3839  -0.3043  -0.0574   1.8630
     1.8652   1.8871   1.9085   1.9100   1.9263   1.9481   2.0384   2.1196
     2.1237   2.1787   2.8328   3.8264   3.9843   4.0140   4.0201   4.5372
     4.5682   4.6690   5.2011   5.8224   5.8366   5.8718   7.5047   7.5815
     7.7588   7.7998   7.8124   7.8381   7.8397   7.9055   7.9205   7.9602
     8.0378   8.1208   8.2935   8.2966   8.3046   8.7413   8.9166   8.9335
     8.9891   9.0014   9.1222   9.9651  10.0375  10.0595  10.0738  10.1512

     the Fermi energy is     8.7130 ev

!    total energy              =    -127.17666537 Ry
     estimated scf accuracy    <       0.00000005 Ry
     smearing contrib. (-TS)   =       0.08053528 Ry
     internal energy E=F+TS    =    -127.25720066 Ry

     convergence has been achieved in   6 iterations
 ARTn: initial READ at step:           4 Initial push F Perp relax: T Lanczos: F Good eigenvalue: F
 ARTn: perpedicular relax at step:           4
 ARTn Called perpmove, number of perp steps:           2
 ARTn: Perp relax out: dot(vel,push):  -1.0339757656912846E-025
 ARTn: Perp relax out: dot(acc,push):  -4.0389678347315804E-028
 ARTn: Dot product between push and perp force  -1.0408340855860843E-017
ARTn Forces (Ry/a.u.):     Ftot =  0.063     Fperp =  0.043     Fpara = -0.096

     Forces acting on atoms (cartesian axes, Ry/au):

     atom    1 type  1   force =     0.00000002    0.00000000   -0.00000002
     atom    2 type  1   force =     0.00992561    0.01658355   -0.00319542
     atom    3 type  1   force =    -0.00319539    0.01658348    0.00992559
     atom    4 type  1   force =    -0.00225749    0.00000001    0.00211409
     atom    5 type  1   force =     0.00434139   -0.00000000    0.00013181
     atom    6 type  1   force =     0.00370035   -0.00296307   -0.00095410
     atom    7 type  1   force =    -0.00093465   -0.00105236    0.00155957
     atom    8 type  1   force =     0.00168057   -0.00000000    0.00168055
     atom    9 type  1   force =    -0.00012407    0.00000001   -0.00012410
     atom   10 type  1   force =     0.00992560   -0.01658355   -0.00319542
     atom   11 type  1   force =    -0.00319539   -0.01658348    0.00992562
     atom   12 type  1   force =    -0.00436368    0.00000001    0.00001151
     atom   13 type  1   force =     0.00327101   -0.00000002    0.00340060
     atom   14 type  1   force =     0.00370035    0.00296307   -0.00095410
     atom   15 type  1   force =    -0.00093465    0.00105234    0.00155959
     atom   16 type  1   force =     0.00211420    0.00000000   -0.00225744
     atom   17 type  1   force =     0.00013187    0.00000001    0.00434135
     atom   18 type  1   force =     0.00155967   -0.00105246   -0.00093449
     atom   19 type  1   force =    -0.00095401   -0.00296313    0.00370044
     atom   20 type  1   force =    -0.00259914   -0.00000001   -0.00259901
     atom   21 type  1   force =     0.00449483    0.00000001    0.00449482
     atom   22 type  1   force =     0.00170672    0.00196651   -0.00057466
     atom   23 type  1   force =    -0.00057477    0.00196664    0.00170667
     atom   24 type  1   force =     0.00001151    0.00000001   -0.00436368
     atom   25 type  1   force =     0.00340067   -0.00000000    0.00327095
     atom   26 type  1   force =     0.00155967    0.00105246   -0.00093450
     atom   27 type  1   force =    -0.00095401    0.00296313    0.00370044
     atom   28 type  1   force =     0.00083357    0.00000000    0.00083365
     atom   29 type  1   force =    -0.00136896    0.00000001   -0.00136898
     atom   30 type  1   force =     0.00170673   -0.00196651   -0.00057468
     atom   31 type  1   force =    -0.00057476   -0.00196664    0.00170669

     Total force =     0.043345     Total SCF correction =     0.000168
 FIRE if_pos:           1           1           1           1           1           1           1           1           1           1           1           1           1           1           1           1           1           1           1           1           1           1           1           1           1           1           1           1           1           1           1           1           1           1           1           1           1           1           1           1           1           1           1           1           1           1           1           1           1           1           1           1           1           1           1           1           1           1           1           1           1           1           1           1           1           1           1           1           1           1           1           1           1           1           1           1           1           1           1           1           1           1           1           1           1           1           1           1           1           1           1           1           1

     Entering FIRE :       iteration =     5

     Fire Parameters: P = 0.00001608, dt = 20.00, alpha = .100at step  5
 FIRE step:  -2.1339505567163441E-009   2.5900704868450201E-009   2.1339505562192880E-009   2.0095479465796636E-003   3.2478359070211129E-003  -6.6600519150278802E-004  -6.6603175089498712E-004   3.2478270705051382E-003   2.0095516705434524E-003  -4.1798402592487627E-004  -1.5403544731883158E-009   3.5089118223443689E-004   8.1437192026621581E-004   4.7828050391956477E-009   1.5193425575898005E-005   7.0384125659359443E-004  -6.0589118934142958E-004  -2.4447735206810318E-004  -2.3485279410863401E-004  -2.4047852524531360E-004   3.0321037351618678E-004   3.3002697394488522E-004  -3.8068985537521934E-010   3.3003660668764172E-004  -6.7196915858096242E-005  -2.6009072789868784E-009  -6.7196492314323421E-005   2.0095513735954237E-003  -3.2478331859973203E-003  -6.6600209793307491E-004  -6.6602385192434722E-004  -3.2478263279028907E-003   2.0095482038088898E-003  -1.0163322834888522E-003  -3.9949886574157388E-009  -1.0340559719152753E-004   7.7932675981292969E-004   8.3931280577369426E-009   7.5207538967698561E-004   7.0384046393950385E-004   6.0589079656929435E-004  -2.4447088238059979E-004  -2.3485279933799339E-004   2.4048806269839988E-004   3.0320788133136065E-004   3.5086293786842812E-004  -3.2766141178334987E-009  -4.1799825450698048E-004   1.5187335495243063E-005  -4.8604904323746698E-009   8.1438667199259195E-004   3.0323641500526759E-004  -2.4045144904673516E-004  -2.3489096641449473E-004  -2.4447705638715818E-004  -6.0588525601333132E-004   7.0384870352340877E-004  -5.8327610191568518E-004   3.4191135751820754E-009  -5.8329617367197640E-004   9.3179679312812343E-004   9.1050353885037116E-011   9.3180572736355314E-004   4.0790345214624345E-004   3.9741787967479758E-004  -1.9574016578957539E-004  -1.9573094624442328E-004   3.9744590544731230E-004   4.0792137918662996E-004  -1.0341802126640189E-004  -4.6313040117069858E-009  -1.0163519540066638E-003   7.5207730743557057E-004  -8.8661536414484271E-010   7.7934646077097551E-004   3.0323873133646849E-004   2.4044910631257230E-004  -2.3489539020262362E-004  -2.4447744675153420E-004   6.0588519017580578E-004   7.0384826662240468E-004   1.5751589312964928E-004  -5.0170539424830931E-009   1.5749685183636024E-004  -2.6390641298017865E-004  -8.2894298418926001E-010  -2.6389070163051321E-004   4.0790025985401986E-004  -3.9741946046051508E-004  -1.9573637755737719E-004  -1.9573434804713141E-004  -3.9744578260329420E-004   4.0791559959966328E-004

ATOMIC_POSITIONS (angstrom)
Al            0.4311022308        0.0000000327        0.4311023026
Al            1.9530287602        1.9811222791       -0.0236155261
Al           -0.0236158907        1.9811221973        1.9530288220
Al            3.8865388928       -0.0000000278       -0.0151645504
Al           -1.9292759309        0.0000000674        1.9360918486
Al           -1.9301578721        1.9412744354       -0.0126651484
Al            3.8878483204        1.9517971159        1.9385365642
Al           -0.0076745807        3.8720523864       -0.0076744661
Al            1.9353131473        3.8720523395        1.9353131906
Al            1.9530288031       -1.9811222421       -0.0236154853
Al           -0.0236157902       -1.9811221855        1.9530287492
Al            3.8735060149        3.8720523213       -0.0116209816
Al           -1.9290646697        3.8720525192        1.9425577809
Al           -1.9301578797       -1.9412744489       -0.0126650555
Al            3.8878483173       -1.9517969822        1.9385365163
Al           -0.0151650082       -0.0000000483        3.8865386659
Al            1.9360916724       -0.0000000767       -1.9292757391
Al            1.9385367533        1.9517976068        3.8878478372
Al           -0.0126651888        1.9412745783       -1.9301578370
Al            3.8848653720        0.0000000460        3.8848650066
Al           -1.9280352749       -0.0000000026       -1.9280351581
Al           -1.9323669700        1.9498001838        3.8806145679
Al            3.8806148555        1.9498004383       -1.9323668178
Al           -0.0116211491        3.8720523157        3.8735057511
Al            1.9425577304        3.8720523768       -1.9290643960
Al            1.9385367802       -1.9517976318        3.8878477977
Al           -0.0126652006       -1.9412745795       -1.9301578458
Al            3.8837982817        3.8720523202        3.8837979883
Al           -1.9382009980        3.8720523711       -1.9382007889
Al           -1.9323670221       -1.9498002034        3.8806146315
Al            3.8806148145       -1.9498004304       -1.9323669037



     Writing output data file /temp/matic/pw/Al-vacancy/al21-scf.save/
     NEW-OLD atomic charge density approx. for the potential

     total cpu time spent up to now is        5.5 secs

     Self-consistent Calculation

     iteration #  1     ecut=     7.00 Ry     beta= 0.50
     Davidson diagonalization with overlap
     ethr =  1.00E-06,  avg # of iterations =  5.0

     total cpu time spent up to now is        5.7 secs

     total energy              =    -127.17914312 Ry
     estimated scf accuracy    <       0.00136129 Ry

     iteration #  2     ecut=     7.00 Ry     beta= 0.50
     Davidson diagonalization with overlap
     ethr =  1.46E-06,  avg # of iterations =  2.0

     total cpu time spent up to now is        5.7 secs

     total energy              =    -127.17907518 Ry
     estimated scf accuracy    <       0.00035974 Ry

     iteration #  3     ecut=     7.00 Ry     beta= 0.50
     Davidson diagonalization with overlap
     ethr =  3.87E-07,  avg # of iterations =  3.0

     total cpu time spent up to now is        5.9 secs

     total energy              =    -127.17914331 Ry
     estimated scf accuracy    <       0.00003320 Ry

     iteration #  4     ecut=     7.00 Ry     beta= 0.50
     Davidson diagonalization with overlap
     ethr =  3.57E-08,  avg # of iterations =  2.0

     total cpu time spent up to now is        5.9 secs

     total energy              =    -127.17914222 Ry
     estimated scf accuracy    <       0.00001003 Ry

     iteration #  5     ecut=     7.00 Ry     beta= 0.50
     Davidson diagonalization with overlap
     ethr =  1.08E-08,  avg # of iterations =  3.0

     total cpu time spent up to now is        6.1 secs

     total energy              =    -127.17914410 Ry
     estimated scf accuracy    <       0.00000940 Ry

     iteration #  6     ecut=     7.00 Ry     beta= 0.50
     Davidson diagonalization with overlap
     ethr =  1.01E-08,  avg # of iterations =  2.0

     total cpu time spent up to now is        6.1 secs

     End of self-consistent calculation

          k = 0.0000 0.0000 0.0000 (   949 PWs)   bands (ev):

    -2.7751  -0.4824  -0.4397  -0.3884  -0.3834  -0.3004  -0.0517   1.8475
     1.8550   1.8954   1.9101   1.9113   1.9388   1.9530   2.0363   2.1154
     2.1264   2.1769   2.8332   3.8303   3.9899   4.0166   4.0201   4.5368
     4.5690   4.6677   5.2078   5.8214   5.8356   5.8639   7.5015   7.5804
     7.7598   7.7852   7.8266   7.8392   7.8415   7.8910   7.9253   7.9645
     8.0446   8.1134   8.2937   8.3023   8.3077   8.7367   8.9197   8.9349
     8.9916   9.0038   9.1267   9.9900  10.0230  10.0672  10.0851  10.1488

     the Fermi energy is     8.7143 ev

!    total energy              =    -127.17914465 Ry
     estimated scf accuracy    <       0.00000027 Ry
     smearing contrib. (-TS)   =       0.08062724 Ry
     internal energy E=F+TS    =    -127.25977189 Ry

     convergence has been achieved in   6 iterations
 ARTn: initial READ at step:           5 Initial push F Perp relax: T Lanczos: F Good eigenvalue: F
 ARTn: perpedicular relax at step:           5
 ARTn Called perpmove, number of perp steps:           3
 ARTn: Perp relax out: dot(vel,push):  -2.5849394142282115E-026
 ARTn: Perp relax out: dot(acc,push):   0.0000000000000000     
 ARTn: Dot product between push and perp force   5.2041704279304213E-018
ARTn Forces (Ry/a.u.):     Ftot =  0.053     Fperp =  0.032     Fpara = -0.089

     Forces acting on atoms (cartesian axes, Ry/au):

     atom    1 type  1   force =    -0.00000001   -0.00000000    0.00000001
     atom    2 type  1   force =     0.00705145    0.01284847   -0.00206204
     atom    3 type  1   force =    -0.00206204    0.01284849    0.00705141
     atom    4 type  1   force =    -0.00200958    0.00000001    0.00228570
     atom    5 type  1   force =     0.00373844   -0.00000000    0.00025225
     atom    6 type  1   force =     0.00310248   -0.00203538   -0.00014584
     atom    7 type  1   force =    -0.00019508   -0.00046421    0.00125920
     atom    8 type  1   force =     0.00129661   -0.00000000    0.00129664
     atom    9 type  1   force =     0.00039143    0.00000001    0.00039137
     atom   10 type  1   force =     0.00705144   -0.01284848   -0.00206205
     atom   11 type  1   force =    -0.00206206   -0.01284849    0.00705143
     atom   12 type  1   force =    -0.00157043    0.00000001    0.00107340
     atom   13 type  1   force =     0.00105583   -0.00000003    0.00178620
     atom   14 type  1   force =     0.00310248    0.00203538   -0.00014586
     atom   15 type  1   force =    -0.00019508    0.00046418    0.00125921
     atom   16 type  1   force =     0.00228580    0.00000001   -0.00200953
     atom   17 type  1   force =     0.00025232    0.00000002    0.00373836
     atom   18 type  1   force =     0.00125922   -0.00046432   -0.00019498
     atom   19 type  1   force =    -0.00014586   -0.00203540    0.00310240
     atom   20 type  1   force =    -0.00126520   -0.00000000   -0.00126508
     atom   21 type  1   force =     0.00297997    0.00000000    0.00297995
     atom   22 type  1   force =     0.00058473    0.00140314    0.00040940
     atom   23 type  1   force =     0.00040931    0.00140311    0.00058471
     atom   24 type  1   force =     0.00107336    0.00000001   -0.00157037
     atom   25 type  1   force =     0.00178623    0.00000000    0.00105580
     atom   26 type  1   force =     0.00125921    0.00046431   -0.00019498
     atom   27 type  1   force =    -0.00014587    0.00203539    0.00310240
     atom   28 type  1   force =     0.00069148    0.00000001    0.00069150
     atom   29 type  1   force =    -0.00108729    0.00000000   -0.00108735
     atom   30 type  1   force =     0.00058474   -0.00140313    0.00040939
     atom   31 type  1   force =     0.00040933   -0.00140312    0.00058472

     Total force =     0.032234     Total SCF correction =     0.000705
 FIRE if_pos:           1           1           1           1           1           1           1           1           1           1           1           1           1           1           1           1           1           1           1           1           1           1           1           1           1           1           1           1           1           1           1           1           1           1           1           1           1           1           1           1           1           1           1           1           1           1           1           1           1           1           1           1           1           1           1           1           1           1           1           1           1           1           1           1           1           1           1           1           1           1           1           1           1           1           1           1           1           1           1           1           1           1           1           1           1           1           1           1           1           1           1           1           1

     Entering FIRE :       iteration =     6

     Fire Parameters: P = 0.00001515, dt = 20.00, alpha = .100at step  6
[...]
     atom   25 type  1   force =    -0.00198750    0.00053734   -0.00054221
     atom   26 type  1   force =    -0.00168147    0.00184758   -0.00181038
     atom   27 type  1   force =    -0.00013685    0.00051469   -0.00309159
     atom   28 type  1   force =    -0.00227175   -0.00097833   -0.00096502
     atom   29 type  1   force =    -0.00294337   -0.00029584   -0.00088181
     atom   30 type  1   force =    -0.00046550    0.00149819   -0.00151902
     atom   31 type  1   force =    -0.00122842    0.00041856   -0.00116186

     Total force =     0.059054     Total SCF correction =     0.000474
 FIRE if_pos:           1           1           1           1           1           1           1           1           1           1           1           1           1           1           1           1           1           1           1           1           1           1           1           1           1           1           1           1           1           1           1           1           1           1           1           1           1           1           1           1           1           1           1           1           1           1           1           1           1           1           1           1           1           1           1           1           1           1           1           1           1           1           1           1           1           1           1           1           1           1           1           1           1           1           1           1           1           1           1           1           1           1           1           1           1           1           1           1           1           1           1           1           1

     Entering FIRE :       iteration =    71

     Fire Parameters: P = 0.00000500, dt = 20.00, alpha = .000at step 71
 FIRE step:   2.3204404864033807E-003  -8.4384624889928792E-007   2.3259678416309220E-003  -1.2151463818636626E-004   6.3336330619467891E-006  -5.7320987181614103E-005  -1.7957473435179838E-005  -2.0837317764484387E-007  -1.2584162468328342E-004  -1.1801618381918676E-004  -2.7696477761525241E-005  -7.9163816049468086E-005  -1.6073933118291683E-004  -1.9968647382218639E-005  -2.1201632797831139E-005  -7.4165427658632173E-005   1.1573869901942091E-005  -1.1594367389976440E-004  -2.1820035476764619E-004  -1.2143787669080178E-004   3.7486185155414953E-005  -3.3643996904467650E-005  -3.3930558129384339E-005   9.5234201566598810E-006  -1.0161404495321576E-004  -6.7296948943383982E-005  -6.7490872794888926E-005  -3.5504660585149872E-005   3.3570699239308120E-006  -1.2789638924609435E-004  -1.1459317115490380E-004  -1.7139883815191680E-005  -4.0310145527344514E-005  -5.1172605318034728E-005   4.9348601313682070E-005  -1.0215093736605900E-004  -8.4558940439132831E-006   6.6441085125372161E-005  -1.7465697225410568E-004  -1.6767343559573661E-004  -2.3512051856244723E-005  -2.9268522150182150E-005  -7.1277749153687397E-005   1.3616642710879306E-004  -9.4543504465153210E-005  -1.1821342891245286E-004  -7.4871530656887517E-006  -4.4666324428284526E-005  -9.4546669062071763E-005   8.8329153106300913E-006  -1.2609584206270277E-004   3.3176427004897677E-005  -1.0371478820963884E-004  -1.8410822454634272E-004  -6.1767129743928783E-005  -5.3808602650693479E-005  -5.3703696215435283E-005   2.7565135794589838E-005   5.0298712651621660E-005  -2.1430999280345364E-005   9.0677502500548238E-006   4.5847170765649027E-005  -8.3918199031989517E-005  -1.3037560196613537E-004  -1.3969437291521726E-004  -2.2064276453908686E-005  -3.6122723767183289E-005  -3.4557196150473456E-005  -1.2945317797610580E-004  -4.0279095770711021E-005   6.9979747899410563E-005  -9.9935862584697352E-005  -1.1396792378476978E-004   3.0812361171435697E-005  -3.1091394127949262E-005  -9.6419650558339959E-005   1.0594473901500506E-004  -1.0381148349288073E-004  -7.8474730594016584E-006   2.9513446147157020E-005  -1.7727919571277942E-004  -1.3026789003009139E-004  -5.6099750607063693E-005  -5.5336323829216263E-005  -1.6877983997086677E-004  -1.6964382813366349E-005  -5.0564915090658020E-005  -2.6692627326177236E-005   8.5909732767724489E-005  -8.7104381445400072E-005  -7.0440778741762356E-005   2.4001398253160887E-005  -6.6624072248515470E-005

ATOMIC_POSITIONS (angstrom)
Al            0.9564237865       -0.0022800536        0.9543977827
Al            1.9937607448        2.0937395810       -0.0665009146
Al           -0.0662872844        2.0916069662        1.9909554855
Al            3.8257295329        0.0017204353        0.0043205550
Al           -1.8996016226        0.0014487528        1.9213929082
Al           -1.9427116086        1.9480816629       -0.0141698345
Al            3.8687714698        1.9448387244        1.9407115652
Al           -0.0122167113        3.8695919688       -0.0112515770
Al            1.9398812848        3.8683557391        1.9395047088
Al            1.9933582508       -2.0957242757       -0.0660318054
Al           -0.0666199602       -2.0943422369        1.9920774984
Al            3.8915297849        3.8735609800       -0.0147582335
Al           -1.9639644943        3.8739858967        1.9398311764
Al           -1.9462286934       -1.9465772756       -0.0128625196
Al            3.8717076546       -1.9428914537        1.9406686864
Al           -0.0002660293        0.0018141447        3.8280509431
Al            1.9199333488        0.0026990656       -1.8966043312
Al            1.9419237605        1.9443476286        3.8689018473
Al           -0.0131188476        1.9435355607       -1.9414384121
Al            3.8681754536        0.0012147227        3.8678414323
Al           -1.9418537028        0.0011174274       -1.9420093320
Al           -1.9495010765        1.9679231806        3.8732116913
Al            3.8750277092        1.9700097349       -1.9489270257
Al           -0.0125725868        3.8726695184        3.8883665951
Al            1.9415512830        3.8718847205       -1.9631322477
Al            1.9400296971       -1.9440039563        3.8730229573
Al           -0.0133288798       -1.9451348046       -1.9437581860
Al            3.8849587853        3.8695336343        3.8845387662
Al           -1.9564792672        3.8708466733       -1.9578042068
Al           -1.9485490165       -1.9681789575        3.8735178554
Al            3.8747579300       -1.9689746331       -1.9478431328



     Writing output data file /temp/matic/pw/Al-vacancy/al21-scf.save/
     NEW-OLD atomic charge density approx. for the potential

     total cpu time spent up to now is       53.9 secs

     Self-consistent Calculation

     iteration #  1     ecut=     7.00 Ry     beta= 0.50
     Davidson diagonalization with overlap
     ethr =  1.00E-06,  avg # of iterations =  2.0

     Threshold (ethr) on eigenvalues was too large:
     Diagonalizing with lowered threshold

     Davidson diagonalization with overlap
     ethr =  2.00E-08,  avg # of iterations =  5.0

     total cpu time spent up to now is       54.1 secs

     total energy              =    -127.15616804 Ry
     estimated scf accuracy    <       0.00004066 Ry

     iteration #  2     ecut=     7.00 Ry     beta= 0.50
     Davidson diagonalization with overlap
     ethr =  4.37E-08,  avg # of iterations =  1.0

     total cpu time spent up to now is       54.2 secs

     total energy              =    -127.15616742 Ry
     estimated scf accuracy    <       0.00001103 Ry

     iteration #  3     ecut=     7.00 Ry     beta= 0.50
     Davidson diagonalization with overlap
     ethr =  1.19E-08,  avg # of iterations =  2.0

     total cpu time spent up to now is       54.5 secs

     End of self-consistent calculation

          k = 0.0000 0.0000 0.0000 (   949 PWs)   bands (ev):

    -2.7758  -0.5324  -0.4475  -0.3843  -0.3729  -0.1705  -0.1182   1.7900
     1.8215   1.8997   1.9078   1.9378   1.9671   2.0134   2.0398   2.0491
     2.1853   2.2351   2.7798   3.9181   3.9700   3.9995   4.0424   4.5070
     4.6000   4.9194   4.9920   5.8232   5.8387   5.8443   7.4186   7.6134
     7.6879   7.7661   7.7934   7.8419   7.8471   7.9235   7.9254   8.0321
     8.0679   8.1196   8.2910   8.3567   8.3877   8.5727   8.8651   8.9798
     9.0262   9.0633   9.1663   9.9595   9.9898  10.1338  10.1982  10.2061

     the Fermi energy is     8.7221 ev

!    total energy              =    -127.15616867 Ry
     estimated scf accuracy    <       0.00000076 Ry
     smearing contrib. (-TS)   =       0.07392425 Ry
     internal energy E=F+TS    =    -127.23009292 Ry

     convergence has been achieved in   3 iterations
 ARTn: initial READ at step:          71 Initial push F Perp relax: T Lanczos: F Good eigenvalue: T
 ARTn: perpedicular relax at step:          71
 Doing a perpendicular relax with obtained eigenvec:   2.3204404864033807E-003  -8.4384624889928802E-007   2.3259678416309220E-003  -1.2151463818636626E-004   6.3336330619467899E-006  -5.7320987181614103E-005  -1.7957473435179838E-005  -2.0837317764484390E-007  -1.2584162468328342E-004  -1.1801618381918679E-004  -2.7696477761525237E-005  -7.9163816049468086E-005  -1.6073933118291680E-004  -1.9968647382218639E-005  -2.1201632797831139E-005  -7.4165427658632173E-005   1.1573869901942091E-005  -1.1594367389976440E-004  -2.1820035476764616E-004  -1.2143787669080181E-004   3.7486185155414953E-005  -3.3643996904467650E-005  -3.3930558129384332E-005   9.5234201566598827E-006  -1.0161404495321576E-004  -6.7296948943383982E-005  -6.7490872794888926E-005  -3.5504660585149872E-005   3.3570699239308116E-006  -1.2789638924609438E-004  -1.1459317115490383E-004  -1.7139883815191680E-005  -4.0310145527344514E-005  -5.1172605318034721E-005   4.9348601313682064E-005  -1.0215093736605899E-004  -8.4558940439132848E-006   6.6441085125372161E-005  -1.7465697225410565E-004  -1.6767343559573661E-004  -2.3512051856244723E-005  -2.9268522150182150E-005  -7.1277749153687384E-005   1.3616642710879306E-004  -9.4543504465153210E-005  -1.1821342891245286E-004  -7.4871530656887508E-006  -4.4666324428284526E-005  -9.4546669062071790E-005   8.8329153106300896E-006  -1.2609584206270275E-004   3.3176427004897670E-005  -1.0371478820963884E-004  -1.8410822454634272E-004  -6.1767129743928783E-005  -5.3808602650693486E-005  -5.3703696215435276E-005   2.7565135794589838E-005   5.0298712651621667E-005  -2.1430999280345360E-005   9.0677502500548221E-006   4.5847170765649027E-005  -8.3918199031989517E-005  -1.3037560196613537E-004  -1.3969437291521723E-004  -2.2064276453908682E-005  -3.6122723767183295E-005  -3.4557196150473449E-005  -1.2945317797610580E-004  -4.0279095770711015E-005   6.9979747899410563E-005  -9.9935862584697352E-005  -1.1396792378476976E-004   3.0812361171435697E-005  -3.1091394127949262E-005  -9.6419650558339959E-005   1.0594473901500505E-004  -1.0381148349288073E-004  -7.8474730594016601E-006   2.9513446147157016E-005  -1.7727919571277945E-004  -1.3026789003009139E-004  -5.6099750607063700E-005  -5.5336323829216263E-005  -1.6877983997086679E-004  -1.6964382813366346E-005  -5.0564915090658013E-005  -2.6692627326177233E-005   8.5909732767724489E-005  -8.7104381445400085E-005  -7.0440778741762356E-005   2.4001398253160884E-005  -6.6624072248515470E-005
 ARTn Called perpmove, number of perp steps:           0
 ARTn: Perp relax out: dot(vel,push):   0.0000000000000000     
 ARTn: Perp relax out: dot(acc,push):   0.0000000000000000     
ARTn Forces (Ry/a.u.):     Ftot =  0.004     Fperp =  0.004     Fpara = -0.000

     Forces acting on atoms (cartesian axes, Ry/au):

     atom    1 type  1   force =     0.00019630    0.00037981    0.00032350
     atom    2 type  1   force =    -0.00005389   -0.00031724    0.00016496
     atom    3 type  1   force =    -0.00005305   -0.00000045    0.00030591
     atom    4 type  1   force =    -0.00052888   -0.00009790   -0.00011879
     atom    5 type  1   force =     0.00067661   -0.00007323   -0.00029882
     atom    6 type  1   force =    -0.00059625   -0.00064110    0.00023604
     atom    7 type  1   force =     0.00048232   -0.00006344   -0.00047983
     atom    8 type  1   force =    -0.00029045    0.00054919   -0.00066803
     atom    9 type  1   force =     0.00020935    0.00082510    0.00012710
     atom   10 type  1   force =    -0.00024210    0.00041595    0.00020639
     atom   11 type  1   force =     0.00042635    0.00045760   -0.00018976
     atom   12 type  1   force =    -0.00002827   -0.00056263   -0.00002982
     atom   13 type  1   force =    -0.00024441   -0.00072547    0.00060732
     atom   14 type  1   force =     0.00035170    0.00053355   -0.00024584
     atom   15 type  1   force =    -0.00039838   -0.00018784   -0.00004761
     atom   16 type  1   force =     0.00078787   -0.00016943   -0.00079626
     atom   17 type  1   force =     0.00038349   -0.00035266    0.00035249
     atom   18 type  1   force =    -0.00059566   -0.00021798    0.00044109
     atom   19 type  1   force =     0.00004980    0.00030425   -0.00058359
     atom   20 type  1   force =    -0.00007777   -0.00030146    0.00027100
     atom   21 type  1   force =    -0.00025959   -0.00026109    0.00025212
     atom   22 type  1   force =     0.00073716    0.00066963   -0.00016962
     atom   23 type  1   force =    -0.00034159   -0.00003445    0.00059965
     atom   24 type  1   force =    -0.00060904   -0.00052458    0.00058955
     atom   25 type  1   force =    -0.00000614   -0.00017737   -0.00049282
     atom   26 type  1   force =     0.00000839    0.00016341   -0.00040680
     atom   27 type  1   force =    -0.00012934    0.00012587    0.00012700
     atom   28 type  1   force =    -0.00008427    0.00062447   -0.00019818
     atom   29 type  1   force =     0.00019284    0.00026105   -0.00003757
     atom   30 type  1   force =     0.00022966   -0.00052148    0.00006332
     atom   31 type  1   force =    -0.00019277   -0.00008005    0.00009592

     Total force =     0.003726     Total SCF correction =     0.001152
     SCF correction compared to forces is large: reduce conv_thr to get better values
 FIRE if_pos:           1           1           1           1           1           1           1           1           1           1           1           1           1           1           1           1           1           1           1           1           1           1           1           1           1           1           1           1           1           1           1           1           1           1           1           1           1           1           1           1           1           1           1           1           1           1           1           1           1           1           1           1           1           1           1           1           1           1           1           1           1           1           1           1           1           1           1           1           1           1           1           1           1           1           1           1           1           1           1           1           1           1           1           1           1           1           1           1           1           1           1           1           1

     FIRE: convergence achieved in  71 steps

     End of FIRE minimization

     Final energy =    -127.1561686660 Ry

Begin final coordinates
     new unit-cell volume =   3134.08131 a.u.^3 (   464.42293 Ang^3 )
     density =      0.11084 g/cm^3

CELL_PARAMETERS (alat=  7.65339080)
   1.912124634   0.000000000   0.000000000
   0.000000000   1.912124634   0.000000000
   0.000000000   0.000000000   1.912124634

ATOMIC_POSITIONS (angstrom)
Al            0.9564237865       -0.0022800536        0.9543977827
Al            1.9937607448        2.0937395810       -0.0665009146
Al           -0.0662872844        2.0916069662        1.9909554855
Al            3.8257295329        0.0017204353        0.0043205550
Al           -1.8996016226        0.0014487528        1.9213929082
Al           -1.9427116086        1.9480816629       -0.0141698345
Al            3.8687714698        1.9448387244        1.9407115652
Al           -0.0122167113        3.8695919688       -0.0112515770
Al            1.9398812848        3.8683557391        1.9395047088
Al            1.9933582508       -2.0957242757       -0.0660318054
Al           -0.0666199602       -2.0943422369        1.9920774984
Al            3.8915297849        3.8735609800       -0.0147582335
Al           -1.9639644943        3.8739858967        1.9398311764
Al           -1.9462286934       -1.9465772756       -0.0128625196
Al            3.8717076546       -1.9428914537        1.9406686864
Al           -0.0002660293        0.0018141447        3.8280509431
Al            1.9199333488        0.0026990656       -1.8966043312
Al            1.9419237605        1.9443476286        3.8689018473
Al           -0.0131188476        1.9435355607       -1.9414384121
Al            3.8681754536        0.0012147227        3.8678414323
Al           -1.9418537028        0.0011174274       -1.9420093320
Al           -1.9495010765        1.9679231806        3.8732116913
Al            3.8750277092        1.9700097349       -1.9489270257
Al           -0.0125725868        3.8726695184        3.8883665951
Al            1.9415512830        3.8718847205       -1.9631322477
Al            1.9400296971       -1.9440039563        3.8730229573
Al           -0.0133288798       -1.9451348046       -1.9437581860
Al            3.8849587853        3.8695336343        3.8845387662
Al           -1.9564792672        3.8708466733       -1.9578042068
Al           -1.9485490165       -1.9681789575        3.8735178554
Al            3.8747579300       -1.9689746331       -1.9478431328
End final coordinates



     Writing output data file /temp/matic/pw/Al-vacancy/al21-scf.save/

     init_run     :      0.03s CPU      0.04s WALL (       1 calls)
     electrons    :     52.95s CPU     44.25s WALL (      72 calls)
     update_pot   :      0.33s CPU      0.35s WALL (      71 calls)
     forces       :      4.49s CPU      3.65s WALL (      72 calls)

     Called by init_run:
     wfcinit      :      0.02s CPU      0.03s WALL (       1 calls)
     potinit      :      0.00s CPU      0.00s WALL (       1 calls)
     hinit0       :      0.00s CPU      0.01s WALL (       1 calls)

     Called by electrons:
     c_bands      :     45.73s CPU     37.77s WALL (     348 calls)
     sum_band     :      4.47s CPU      3.90s WALL (     348 calls)
     v_of_rho     :      0.56s CPU      0.53s WALL (     371 calls)
     mix_rho      :      1.94s CPU      1.74s WALL (     348 calls)

     Called by c_bands:
     init_us_2    :      0.44s CPU      0.39s WALL (     697 calls)
     cegterg      :     44.81s CPU     36.94s WALL (     348 calls)

     Called by *egterg:
     cdiaghg      :     11.95s CPU      9.72s WALL (    1214 calls)
     h_psi        :     24.10s CPU     20.61s WALL (    1335 calls)
     g_psi        :      0.25s CPU      0.17s WALL (     986 calls)

     Called by h_psi:
     h_psi:calbec :      3.16s CPU      2.71s WALL (    1335 calls)
     vloc_psi     :     18.37s CPU     15.95s WALL (    1335 calls)
     add_vuspsi   :      2.36s CPU      1.79s WALL (    1335 calls)

     General routines
     calbec       :      3.97s CPU      3.32s WALL (    1623 calls)
     fft          :      0.41s CPU      0.37s WALL (    1305 calls)
     ffts         :      1.11s CPU      0.97s WALL (    3301 calls)
     fftw         :     19.75s CPU     17.19s WALL (  115378 calls)

     Parallel routines
     fft_scatt_xy :      3.60s CPU      3.16s WALL (  119984 calls)
     fft_scatt_yz :      5.75s CPU      5.04s WALL (  119984 calls)

     PWSCF        :   1m 5.01s CPU     54.68s WALL


   This run was terminated on:  10:39: 5  27Oct2020            

=------------------------------------------------------------------------------=
   JOB DONE.
=------------------------------------------------------------------------------=
