Comment

 1202 atoms
 3 atom types
-2.2745003408435007e+00 2.4055400340843530e+01 xlo xhi 
-2.2745003408435007e+00 2.4055400340843530e+01 ylo yhi
-5.2213185425214261e+00 5.5221318542521452e+01 zlo zhi
 0.0 0.0 0.0 xy xz yz

Atoms

1	1	0.0	2.9983125853	2.9864843968	-4.7600949478
2	1	0.0	2.9982720237	13.518454716	-4.7602325413
3	1	0.0	2.9983304778	18.7844583805	-4.7600930871
4	1	0.0	8.2643163376	18.7844193871	-4.7601489789
5	1	0.0	13.5303031175	2.986457249	-4.7602762497
6	1	0.0	13.530267115	18.7844688933	-4.7602078287
7	1	0.0	18.7963370028	2.986456051	-4.7602426939
8	1	0.0	18.7962226567	8.2525151614	-4.7604254471
9	1	0.0	18.7961540183	13.5185804292	-4.7603946441
10	1	0.0	18.7962271461	18.7845333319	-4.7601898202
11	1	0.0	0.3653288169	5.6194606222	-4.7601811067
12	1	0.0	0.3653020323	16.1514934799	-4.7601823163
13	1	0.0	5.6313245753	0.3534927927	-4.7600717293
14	1	0.0	5.6312380879	5.6194754412	-4.7602024616
15	1	0.0	5.631285537	16.1514417157	-4.7601850669
16	1	0.0	16.163361542	0.3534523021	-4.7601819877
17	1	0.0	16.1632625723	5.619485273	-4.7603782587
18	1	0.0	16.1631818705	16.1515548503	-4.7603114776
19	1	0.0	24.0622954731	2.9864738768	-4.7601288337
20	1	0.0	24.0621867323	13.5185186818	-4.7602984425
21	1	0.0	24.0622198919	18.7845274047	-4.7601217474
22	1	0.0	2.9983543256	-2.2794681429	-4.7600109752
23	1	0.0	2.998257895	8.2524565687	-4.7602329646
24	1	0.0	8.2642701436	2.9864761702	-4.7601896125
25	1	0.0	8.2641753516	8.2524917788	-4.7603126868
26	1	0.0	8.2642022766	13.5184764449	-4.7602865712
27	1	0.0	13.5303634646	-2.2795360939	-4.760140619
28	1	0.0	13.5301693893	8.2525312274	-4.7604323198
29	1	0.0	13.5301503906	13.5185512115	-4.7603865441
30	1	0.0	18.7963354586	-2.2794840875	-4.7600953897
31	1	0.0	0.3653692209	0.3535131701	-4.7600243691
32	1	0.0	0.3652892616	10.8854627843	-4.7602799055
33	1	0.0	0.365350323	21.417480767	-4.7600280482
34	1	0.0	5.6312106009	10.8854641243	-4.7602723484
35	1	0.0	5.6313534211	21.4174164132	-4.7600583203
36	1	0.0	10.8973376371	0.3534522644	-4.7601651373
37	1	0.0	10.897212314	5.6194919189	-4.7603267226
38	1	0.0	10.8972265278	16.1514805477	-4.7602642412
39	1	0.0	16.1631492114	10.885567895	-4.7604600638
40	1	0.0	16.1633082639	21.4174441625	-4.7601401681
41	1	0.0	21.4293338046	0.3534926471	-4.7600938076
42	1	0.0	21.4292906203	5.6194642769	-4.7602924732
43	1	0.0	21.4291811422	16.1515640886	-4.760262679
44	1	0.0	24.0622893383	-2.2794469083	-4.7600149498
45	1	0.0	24.0622350222	8.2524671632	-4.7603060057
46	1	0.0	8.2643570429	-2.2795243267	-4.7600849929
47	1	0.0	10.8971453492	10.8855244451	-4.7603850887
48	1	0.0	10.8973465302	21.4173904039	-4.7601312955
49	1	0.0	21.429193997	10.8855280393	-4.7603942961
50	1	0.0	21.4292698282	21.4174961294	-4.7600755391
51	1	0.0	14.8466889694	14.8349925733	-3.4428585192
52	1	0.0	1.6818623936	1.6700151078	-3.4425219078
53	1	0.0	1.6817980717	6.9359779676	-3.4426750231
54	1	0.0	1.6817770951	12.2019350307	-3.4427420556
55	1	0.0	1.6818264385	17.4679210866	-3.442627967
56	1	0.0	1.681878242	22.733925739	-3.4424950577
57	1	0.0	6.9478425414	1.6699976877	-3.4425971082
58	1	0.0	12.2138464594	1.6699834892	-3.4427029265
59	1	0.0	17.4798411498	1.66999525	-3.4426994061
60	1	0.0	17.4797124896	17.4679753959	-3.4427544135
61	1	0.0	22.7458037904	1.6700158829	-3.4425850403
62	1	0.0	-0.9511102848	-0.9629685438	-3.4424909196
63	1	0.0	-0.9511452414	4.3030024771	-3.4426211953
64	1	0.0	-0.9512079766	9.5689697502	-3.4427704027
65	1	0.0	-0.9512143903	14.8349544368	-3.4427307405
66	1	0.0	-0.951154189	20.1009482253	-3.4425615869
67	1	0.0	4.3148776463	-0.9629929398	-3.4425080107
68	1	0.0	4.3148090703	4.3029986281	-3.4426122999
69	1	0.0	4.3147548325	9.5689550443	-3.4427340976
70	1	0.0	4.3147941339	14.8349069481	-3.442703735
71	1	0.0	4.314868907	20.100895085	-3.4425605427
72	1	0.0	9.580881496	-0.9630297794	-3.442600981
73	1	0.0	9.5807869705	4.3030040237	-3.4427370292
74	1	0.0	9.5807059744	9.5689949611	-3.442847083
75	1	0.0	9.5807498128	14.8349306735	-3.442782184
76	1	0.0	9.580859332	20.1008694147	-3.4426338906
77	1	0.0	14.8468678685	-0.9630254542	-3.4426496961
78	1	0.0	14.8467957641	4.3030096969	-3.4428177538
79	1	0.0	14.846683045	9.5690394111	-3.4429494425
80	1	0.0	14.8468000769	20.1009110873	-3.4426743085
81	1	0.0	20.1128267218	-0.962984813	-3.4425795944
82	1	0.0	20.112793647	4.3030083846	-3.4427492283
83	1	0.0	20.1126917212	9.569023242	-3.4429001906
84	1	0.0	20.1126645491	14.8350085959	-3.442827754
85	1	0.0	20.1127495475	20.1009577866	-3.4426283957
86	1	0.0	6.9477501743	6.9359910776	-3.4427361754
87	1	0.0	6.9477393968	12.2019407618	-3.442777553
88	1	0.0	6.9478283442	17.4678852994	-3.4426641521
89	1	0.0	6.947890596	22.7338764634	-3.4425497466
90	1	0.0	12.2137292948	6.9360238161	-3.4428746134
91	1	0.0	12.2136856785	12.2019993146	-3.4428950139
92	1	0.0	12.2137737724	17.4679199186	-3.4427421026
93	1	0.0	12.2138735378	22.7338645308	-3.4426255185
94	1	0.0	17.4797391823	6.9360287319	-3.4428943169
95	1	0.0	17.4796587847	12.2020343707	-3.4429303692
96	1	0.0	17.4798215315	22.7339101527	-3.4426114273
97	1	0.0	22.7457371549	6.9359994587	-3.4427759319
98	1	0.0	22.7456712339	12.2019930667	-3.4428353077
99	1	0.0	22.7456994371	17.4679761522	-3.4426864728
100	1	0.0	22.7457829067	22.733944857	-3.4425299746
101	1	0.0	21.4292855993	2.9865711173	-2.1194031999
102	1	0.0	2.9983956437	21.4173907669	-2.1192742024
103	1	0.0	0.3653971798	-2.2794635228	-2.1192253686
104	1	0.0	0.3653597592	2.9865564096	-2.1193023708
105	1	0.0	0.3652731088	8.2524918164	-2.1194580532
106	1	0.0	0.3652581397	13.5184054666	-2.1194824387
107	1	0.0	0.3653324125	18.7843918441	-2.1193382695
108	1	0.0	5.6314210252	-2.2795022052	-2.1192829251
109	1	0.0	5.6313547485	2.9865348006	-2.1193519626
110	1	0.0	5.6312624888	8.2524810911	-2.1194566021
111	1	0.0	5.6312754915	13.5183834254	-2.1194471999
112	1	0.0	5.6313762708	18.7843471031	-2.1193415654
113	1	0.0	10.8974118762	-2.2795310469	-2.1193519413
114	1	0.0	10.89734559	2.9865359357	-2.1194901026
115	1	0.0	10.8972383865	8.2525229254	-2.1196004496
116	1	0.0	10.8972348323	13.5184241673	-2.1195316515
117	1	0.0	10.8973415747	18.78434823	-2.1193774511
118	1	0.0	16.1633490204	-2.2795006404	-2.119337212
119	1	0.0	16.1633260399	2.9865572306	-2.1195216947
120	1	0.0	16.1632087884	8.252564429	-2.119692489
121	1	0.0	16.1631652186	13.5184769283	-2.1196124922
122	1	0.0	16.1632506104	18.7843928796	-2.1193988228
123	1	0.0	21.4292965986	-2.2794594421	-2.1192628538
124	1	0.0	21.4291870639	8.2525409343	-2.1196062991
125	1	0.0	21.4291329159	13.5184657494	-2.1195850111
126	1	0.0	21.4292027954	18.7844177819	-2.1193720516
127	1	0.0	24.0622944213	0.3535633419	-2.1192603119
128	1	0.0	24.0622254275	5.6195496081	-2.1194396257
129	1	0.0	24.0621471728	10.8854726299	-2.1195619219
130	1	0.0	24.0621651423	16.151414298	-2.1194548319
131	1	0.0	24.0622589734	21.4174234556	-2.1192678206
132	1	0.0	2.9983956098	0.3535414398	-2.1192570831
133	1	0.0	2.9983079951	5.619522247	-2.1193737955
134	1	0.0	2.9982552965	10.8854288407	-2.1194600129
135	1	0.0	2.998313203	16.151364002	-2.1194005714
136	1	0.0	8.2643994007	0.353511628	-2.119361814
137	1	0.0	8.2642952034	5.6195270136	-2.1194831071
138	1	0.0	8.2642391958	10.8854488646	-2.1195198965
139	1	0.0	8.264312649	16.1513572947	-2.1194174751
140	1	0.0	8.2644134849	21.4173484285	-2.1193226957
141	1	0.0	13.5303795039	0.3535112047	-2.1194272741
142	1	0.0	13.5302783788	5.6195622009	-2.1196197276
143	1	0.0	13.5301932607	10.8855095934	-2.119650644
144	1	0.0	13.5302390445	16.1514026999	-2.1194844759
145	1	0.0	13.5303522771	21.4173612543	-2.1193438471
146	1	0.0	18.7963295407	0.3535475004	-2.1193624153
147	1	0.0	18.7962563559	5.6195735654	-2.1195914499
148	1	0.0	18.7961524667	10.8855273161	-2.1196780061
149	1	0.0	18.7961656997	16.1514377589	-2.1195040468
150	1	0.0	18.7962739049	21.4174081722	-2.1193134266
151	1	0.0	9.5808999767	17.4677575882	-0.7974525143
152	1	0.0	9.5810006467	22.7337895466	-0.7973900175
153	1	0.0	12.2139151306	20.1007670822	-0.7974142089
154	1	0.0	12.2137225004	9.5690355653	-0.7976625091
155	1	0.0	14.8469018787	22.7338251419	-0.7973994979
156	1	0.0	12.2139668687	-0.9630388816	-0.7974418699
157	1	0.0	14.8467648731	17.4678266061	-0.7974902502
158	1	0.0	14.8467417246	6.9361098844	-0.7976927047
159	1	0.0	17.479639801	14.8349187653	-0.7975958552
160	1	0.0	-0.9512165893	6.9360460951	-0.797456785
161	1	0.0	14.8468949523	1.6700486228	-0.7975264819
162	1	0.0	17.4797724476	20.1008394535	-0.7974176804
163	1	0.0	22.7457238495	20.1008700354	-0.7973918556
164	1	0.0	20.1125980346	12.2019868072	-0.7976574352
165	1	0.0	17.4797985607	4.3031058131	-0.7975945487
166	1	0.0	9.5807710854	12.2019034517	-0.7975695195
167	1	0.0	20.1127906427	22.7338948219	-0.7973566623
168	1	0.0	22.7456341895	9.5690133595	-0.7975985303
169	1	0.0	17.4798687652	-0.9629867574	-0.7974094647
170	1	0.0	20.1128136075	1.67008691	-0.7974252103
171	1	0.0	9.5809269678	1.6700393638	-0.7974646955
172	1	0.0	6.9479804437	20.1007559298	-0.7973935258
173	1	0.0	6.947779682	9.5689617906	-0.7975201747
174	1	0.0	20.1126991725	6.9360954653	-0.7976180824
175	1	0.0	12.2138426129	4.3030902767	-0.7975973163
176	1	0.0	20.1126610277	17.4678716968	-0.7974944713
177	1	0.0	6.9479752987	-0.9630125533	-0.7973646615
178	1	0.0	4.3149086259	1.6700613325	-0.7973305281
179	1	0.0	22.7457981748	-0.9629413618	-0.7973155974
180	1	0.0	-0.9511217586	1.6700921767	-0.7973113757
181	1	0.0	14.8466659913	12.201985186	-0.7976653835
182	1	0.0	12.2137672369	14.8348547559	-0.797553508
183	1	0.0	6.9478583481	4.3030663683	-0.7974402395
184	1	0.0	4.314905988	17.4677615967	-0.7974387716
185	1	0.0	1.6819235817	-0.9629602955	-0.7972862958
186	1	0.0	1.6817667337	9.5689496216	-0.7974784903
187	1	0.0	6.9478537077	14.8347900424	-0.7974873428
188	1	0.0	1.6818389471	4.3030759631	-0.7973511704
189	1	0.0	1.681898882	20.1008254426	-0.7973781435
190	1	0.0	-0.9511097848	22.7339026702	-0.7973120542
191	1	0.0	4.3147981896	12.2018564998	-0.7974957418
192	1	0.0	9.5807914482	6.9360597481	-0.7975741831
193	1	0.0	22.7457432971	4.3031020522	-0.7974406025
194	1	0.0	17.4796488796	9.5690737132	-0.7977105553
195	1	0.0	4.3149673877	22.7338485311	-0.797336684
196	1	0.0	1.6818088365	14.834808882	-0.7974998282
197	1	0.0	-0.9512012631	17.4678345004	-0.7974658029
198	1	0.0	22.7456171772	14.8348918643	-0.7975667196
199	1	0.0	-0.9512623416	12.201900371	-0.7975552297
200	1	0.0	4.3148016795	6.9360240998	-0.7974305998
201	1	0.0	10.8974931371	21.4172463823	0.5244928274
202	1	0.0	13.5303366002	18.7842213017	0.5245036151
203	1	0.0	13.5304667859	-2.2795471194	0.5244593361
204	1	0.0	10.8972670513	10.8854503728	0.5243178964
205	1	0.0	10.8973429274	16.1512318324	0.5244576979
206	1	0.0	10.8975125264	0.3535504862	0.5243537299
207	1	0.0	16.1632999799	5.619693446	0.5241751986
208	1	0.0	16.1631646937	16.1512826376	0.5244084508
209	1	0.0	18.796328623	-2.2794889862	0.5245147613
210	1	0.0	18.7963221435	2.9866881505	0.5243421473
211	1	0.0	8.2644700755	18.7842010765	0.524476366
212	1	0.0	18.7960662494	13.5183875834	0.5242712883
213	1	0.0	21.4292300911	21.417333355	0.5245111627
214	1	0.0	21.4290592432	10.8854836297	0.5242162468
215	1	0.0	21.4293159571	0.3536313912	0.5245028953
216	1	0.0	13.5304241818	2.9866512577	0.5242471895
217	1	0.0	13.5302101217	13.5183620389	0.5243448597
218	1	0.0	16.1634105766	0.3535922056	0.5243938851
219	1	0.0	16.1633267146	21.4172843193	0.5245219609
220	1	0.0	18.7961676641	18.7842648832	0.5244674818
221	1	0.0	8.2645530808	-2.2795490379	0.5244315155
222	1	0.0	13.5302631784	8.2526099495	0.5241941918
223	1	0.0	5.6315209296	21.4172780943	0.5244494111
224	1	0.0	21.4292100398	5.6196775958	0.5243228998
225	1	0.0	10.8973753909	5.619633909	0.5242624557
226	1	0.0	16.1631470659	10.8855204268	0.5242044963
227	1	0.0	21.4290715416	16.1512847063	0.5243512093
228	1	0.0	5.6313838967	16.151209187	0.524432539
229	1	0.0	5.6315135324	0.3535703984	0.5244687635
230	1	0.0	24.0622701736	2.9866727855	0.524487842
231	1	0.0	0.3652581514	16.1512371943	0.5243521145
232	1	0.0	0.3653082498	5.6196139804	0.5244686829
233	1	0.0	8.2643220197	13.5182896224	0.5244176304
234	1	0.0	8.264463765	2.9866126784	0.5243762851
235	1	0.0	2.9984188747	2.9866298801	0.5245074085
236	1	0.0	24.0621154016	8.2525570333	0.524333797
237	1	0.0	24.0621714781	18.7842696523	0.5244258563
238	1	0.0	2.9984984859	-2.2794921998	0.5245053589
239	1	0.0	5.6312876114	10.8853814119	0.5244133511
240	1	0.0	24.0623040824	-2.2794607266	0.5245412645
241	1	0.0	0.3654376427	0.3536169874	0.5245421629
242	1	0.0	18.7961615443	8.2526330457	0.5241690916
243	1	0.0	0.3654044984	21.4173280142	0.5244861405
244	1	0.0	2.9984070742	18.7842316788	0.5244159012
245	1	0.0	0.3651971925	10.8853961566	0.5243574679
246	1	0.0	8.2643210566	8.2525274068	0.5243551848
247	1	0.0	2.998270576	13.5182717699	0.524388641
248	1	0.0	24.0620548963	13.5183254366	0.5242827655
249	1	0.0	5.6313729222	5.6195912503	0.5244361501
250	1	0.0	2.9982751317	8.2524985077	0.5244402686
251	1	0.0	14.8469246732	20.1006279179	1.846442116
252	1	0.0	17.4798863084	22.7337842305	1.8464060278
253	1	0.0	14.8470261908	-0.9630162177	1.8463209704
254	1	0.0	12.2141234815	22.7336744174	1.8463843526
255	1	0.0	17.4798812995	1.6701825211	1.8462845808
256	1	0.0	9.5811477788	20.1005459258	1.8464005366
257	1	0.0	12.2140425493	1.6701108868	1.8461995575
258	1	0.0	14.8468654284	4.3032416824	1.846138968
259	1	0.0	14.8466982452	14.8347544251	1.8463683554
260	1	0.0	17.479677367	17.4676928162	1.8463869899
261	1	0.0	6.948184756	22.7336906772	1.8463210878
262	1	0.0	12.2139487025	17.4675756073	1.8464383669
263	1	0.0	17.4796723953	6.9362507052	1.8461493964
264	1	0.0	22.7457670893	1.670215579	1.8464333243
265	1	0.0	9.5811603069	-0.9630668455	1.8462871892
266	1	0.0	20.112713212	20.1007312456	1.8463707597
267	1	0.0	9.5809357252	14.8346251005	1.8463932566
268	1	0.0	14.8466611618	9.5691142212	1.8461924833
269	1	0.0	20.1128354867	-0.9629205874	1.8464002033
270	1	0.0	6.9480763124	17.4675253508	1.8463577581
271	1	0.0	22.7457807095	22.7338543275	1.846385138
272	1	0.0	20.1127199828	4.3032707915	1.8463020196
273	1	0.0	20.1125229604	14.834798007	1.8462770221
274	1	0.0	6.9480552382	1.6701004019	1.8463542128
275	1	0.0	17.4795445416	12.2019639819	1.8462458934
276	1	0.0	-0.9510691404	-0.9629098009	1.8464314438
277	1	0.0	12.2137564231	12.2018692133	1.8463202317
278	1	0.0	12.2138169118	6.9361841187	1.8461903785
279	1	0.0	22.7456166097	17.4677007382	1.8462761805
280	1	0.0	20.1125245915	9.5691156372	1.8462014844
281	1	0.0	9.5809597012	4.3031696275	1.846262699
282	1	0.0	22.7455889173	6.9361945433	1.8463412154
283	1	0.0	6.9478680338	6.9360930064	1.8463728082
284	1	0.0	1.6820212141	22.7338011141	1.8463533465
285	1	0.0	4.3150939483	20.1006086263	1.8462855382
286	1	0.0	4.3150836328	-0.9629926492	1.8463884239
287	1	0.0	-0.9512051038	4.3032181002	1.8464668927
288	1	0.0	1.6819331198	1.670165111	1.8464662035
289	1	0.0	1.6819083731	17.4676009558	1.8462373123
290	1	0.0	-0.9511240964	20.1007114933	1.8463013203
291	1	0.0	9.5808184571	9.5689891614	1.8463148542
292	1	0.0	6.9478759528	12.2017507639	1.8463728606
293	1	0.0	22.7454947884	12.2018968783	1.846226993
294	1	0.0	-0.9512908307	14.8346994158	1.8462204151
295	1	0.0	1.6817646636	6.9360991411	1.8464542809
296	1	0.0	4.3149203962	14.8346029866	1.8463168173
297	1	0.0	1.6817503764	12.2017703161	1.8463184584
298	1	0.0	4.3149049057	4.303159337	1.846443447
299	1	0.0	4.3148020013	9.5689233594	1.8464044136
300	1	0.0	-0.9513448965	9.5689949957	1.8463453244
301	1	0.0	16.1634797552	-2.2795470842	3.168379017
302	1	0.0	18.796402405	0.3537294622	3.1683180746
303	1	0.0	16.163223512	18.7840143402	3.1685564883
304	1	0.0	18.7962465425	21.4171600087	3.1684387885
305	1	0.0	13.5306290801	0.3536756545	3.1681787352
306	1	0.0	16.1634549329	2.9868852327	3.1681422934
307	1	0.0	13.5305234306	21.4170957869	3.1684857657
308	1	0.0	10.8975392451	18.7839689737	3.1685249005
309	1	0.0	13.5302674457	16.1510295252	3.1685972945
310	1	0.0	8.2647089843	21.4171057972	3.1682932464
311	1	0.0	18.796223408	5.6199121386	3.1681850457
312	1	0.0	16.1632102707	8.2527462953	3.1681798213
313	1	0.0	10.8977173416	-2.2795940623	3.1682604647
314	1	0.0	13.530470342	5.6198397561	3.1681201444
315	1	0.0	16.1630475911	13.5182408557	3.1684515238
316	1	0.0	8.2647672647	0.3536009758	3.1681793144
317	1	0.0	18.7959760917	16.1510705109	3.1684307478
318	1	0.0	10.8976689899	2.9867672816	3.1681318915
319	1	0.0	8.2644886935	16.1509815164	3.1684764148
320	1	0.0	21.4293126926	-2.2794919516	3.1683646827
321	1	0.0	13.5302196326	10.8854623649	3.16838436
322	1	0.0	10.8973324696	13.5181593671	3.1685417084
323	1	0.0	18.7959738192	10.8854951819	3.1682635716
324	1	0.0	5.6317552965	-2.2795757789	3.1681959255
325	1	0.0	21.4290558617	18.7840520693	3.1683302974
326	1	0.0	21.4292816232	2.9868760087	3.1683350569
327	1	0.0	8.2645480119	5.6197279091	3.1683086833
328	1	0.0	24.0623558081	0.3537235242	3.1683666588
329	1	0.0	5.6315760365	18.7840031363	3.1682625457
330	1	0.0	24.0622440804	21.4171936536	3.1682659114
331	1	0.0	0.3655345651	-2.2794945628	3.1682683043
332	1	0.0	2.9986037856	21.4171517772	3.1681731314
333	1	0.0	10.8974062683	8.2526356256	3.1683210428
334	1	0.0	5.6316196261	2.9867357197	3.1683193878
335	1	0.0	24.0619835838	16.1510221639	3.168208266
336	1	0.0	2.99862558	0.3536653865	3.1683048666
337	1	0.0	21.4289956717	8.2527142457	3.1682598016
338	1	0.0	24.0621350511	5.6197990253	3.1683895747
339	1	0.0	21.4288768488	13.5182048403	3.1682734452
340	1	0.0	0.365432277	2.9867850655	3.1684128875
341	1	0.0	0.3653363876	18.7840176729	3.1681656422
342	1	0.0	2.9983302421	16.1509947663	3.1682361302
343	1	0.0	5.6313775544	8.2525384761	3.1684489174
344	1	0.0	8.2643685159	10.8853422881	3.1684750586
345	1	0.0	5.6313545491	13.5180995073	3.1684222444
346	1	0.0	2.9983910559	5.6197013319	3.1684426077
347	1	0.0	24.0618924557	10.8853971183	3.1682825795
348	1	0.0	2.9982082663	10.8853037213	3.168408964
349	1	0.0	0.365152898	8.2525637737	3.1684151331
350	1	0.0	0.3650896261	13.5181246172	3.1682505576
351	1	0.0	17.4799879846	-0.962894819	4.4903098153
352	1	0.0	14.8471790822	22.733594591	4.4904124185
353	1	0.0	17.4796994957	4.3035929764	4.4902501588
354	1	0.0	17.4798550156	20.1004645552	4.4905083935
355	1	0.0	12.2142705087	20.1002822245	4.49055414
356	1	0.0	20.1128411642	22.7337358084	4.4903215865
357	1	0.0	12.2143304842	-0.9630260437	4.4901607453
358	1	0.0	14.8468741965	17.4673456896	4.4907099591
359	1	0.0	14.8470472204	1.6703694188	4.4901453739
360	1	0.0	20.1127529987	1.6704437265	4.4903552058
361	1	0.0	9.5814521566	22.7335010888	4.4902287856
362	1	0.0	20.1125539345	17.4674788041	4.4904111347
363	1	0.0	6.9484569636	-0.9631181902	4.490126709
364	1	0.0	6.9483906068	20.1002868119	4.4902160783
365	1	0.0	9.5813551028	1.6701496789	4.4901286298
366	1	0.0	12.2140999332	4.3033677343	4.4901705104
367	1	0.0	17.4795039158	14.8345923051	4.4906200373
368	1	0.0	14.8467577	6.9364089529	4.4902963829
369	1	0.0	22.7457114367	20.1005270678	4.4901910287
370	1	0.0	17.4794534938	9.5692173399	4.4904486191
371	1	0.0	9.5812558523	17.4671772372	4.4905738445
372	1	0.0	22.7458238353	-0.9628444299	4.4903004446
373	1	0.0	12.2139184924	14.8344051611	4.4907526905
374	1	0.0	4.3153870189	22.7335466919	4.4900636809
375	1	0.0	4.3151642507	1.6702180537	4.4903308264
376	1	0.0	20.1123185555	12.2018839494	4.4904681165
377	1	0.0	14.8466013619	12.2018191469	4.490651366
378	1	0.0	20.1123984847	6.9365185672	4.4904242354
379	1	0.0	1.6821447331	20.1003789546	4.4900029468
380	1	0.0	12.2138004909	9.5690549394	4.4905503643
381	1	0.0	1.6821385825	-0.9629433825	4.490219415
382	1	0.0	22.7455447858	4.3035233752	4.4905123517
383	1	0.0	4.3151443825	17.467258664	4.4901615022
384	1	0.0	6.9481221329	4.3032700706	4.4903868813
385	1	0.0	-0.9509898203	22.7337249382	4.4901215794
386	1	0.0	1.6818402086	4.3033431651	4.4905470541
387	1	0.0	6.9481060989	14.8342986315	4.4905083821
388	1	0.0	9.5810010376	6.9362123432	4.4904513439
389	1	0.0	-0.9511211984	1.6703502424	4.4904312395
390	1	0.0	9.5809483659	12.2016085825	4.4906788647
391	1	0.0	22.7454179683	14.8345574677	4.4902968353
392	1	0.0	-0.951199557	17.4673646892	4.4900885428
393	1	0.0	22.7452595585	9.5691928356	4.4904841377
394	1	0.0	6.9479161052	9.5688964897	4.490614515
395	1	0.0	4.3148558387	6.9361728501	4.4905836258
396	1	0.0	-0.9514612314	6.9363272806	4.4906010771
397	1	0.0	4.3148449881	12.2015941218	4.4904947239
398	1	0.0	1.6817760236	14.8344260613	4.4902126181
399	1	0.0	1.6816115848	9.5689742811	4.4905562664
400	1	0.0	-0.9515360478	12.20177497	4.4903670274
401	1	0.0	18.7964355097	-2.279535096	5.8123607704
402	1	0.0	16.1634593456	21.4169232874	5.8126660609
403	1	0.0	16.1636346991	0.353973015	5.8121830634
404	1	0.0	18.7963267258	2.9872920536	5.8122810698
405	1	0.0	13.5308270127	-2.279530905	5.8122831221
406	1	0.0	18.7960495996	18.7837236118	5.81270193
407	1	0.0	16.1630172962	16.1507063107	5.8130701149
408	1	0.0	10.8978443786	21.4169021805	5.812448539
409	1	0.0	13.530459932	18.7836424849	5.8129853105
410	1	0.0	16.1633846632	5.6202363428	5.812438225
411	1	0.0	21.4291985171	21.416959881	5.8123017598
412	1	0.0	13.5308382409	2.9871562736	5.8122251809
413	1	0.0	10.8981049006	0.3537850747	5.8121259054
414	1	0.0	8.2647316101	18.7836615057	5.8124739009
415	1	0.0	8.265133105	-2.2796517554	5.8121182672
416	1	0.0	21.4293830233	0.3539048933	5.8122798466
417	1	0.0	5.6321051323	0.3536799846	5.8120077203
418	1	0.0	18.7957215305	13.5179851992	5.8128329984
419	1	0.0	16.162986187	10.885411504	5.8128687745
420	1	0.0	13.5301569578	13.5179214655	5.8131621192
421	1	0.0	5.6319473796	21.4169070421	5.8120752629
422	1	0.0	8.2650975652	2.9869033245	5.8121544806
423	1	0.0	2.9985543845	18.7836812475	5.8120580826
424	1	0.0	10.8974756422	16.1506229457	5.8130619026
425	1	0.0	13.5304459613	8.2528028796	5.8126576437
426	1	0.0	18.7958950908	8.2529456936	5.8126827391
427	1	0.0	2.9989360787	-2.2796377699	5.8118908941
428	1	0.0	21.4287591075	16.15070813	5.8124937166
429	1	0.0	24.0620434421	18.7836668009	5.8120863054
430	1	0.0	24.0624276866	-2.2795426469	5.8121150727
431	1	0.0	2.9987034408	2.9869145834	5.8123905157
432	1	0.0	21.4289766535	5.620221308	5.8125141349
433	1	0.0	8.2644484608	13.5178491372	5.8129305778
434	1	0.0	10.8978757155	5.6199726802	5.8123878514
435	1	0.0	0.3655775393	21.4169047414	5.8118619384
436	1	0.0	5.6314694731	16.1506767118	5.8124207758
437	1	0.0	24.062263425	2.9870745526	5.8124393899
438	1	0.0	8.2646034369	8.2526197603	5.8127679184
439	1	0.0	0.3656731348	0.3537869348	5.8122073396
440	1	0.0	5.631687668	5.6198528099	5.8125530292
441	1	0.0	10.8974023462	10.8852725378	5.8130070901
442	1	0.0	21.4285959051	10.885439629	5.8127353605
443	1	0.0	0.3652356531	5.6199273984	5.812610941
444	1	0.0	24.0617166917	8.2528115347	5.8126432191
445	1	0.0	0.3650611676	16.1506631264	5.8122234
446	1	0.0	5.6313302952	10.8852177669	5.8127875421
447	1	0.0	2.998218949	8.2526060909	5.812697323
448	1	0.0	24.0616265705	13.5179518046	5.8125189336
449	1	0.0	2.998091305	13.5178946433	5.8124577581
450	1	0.0	0.3648151445	10.8853020474	5.8125767207
451	1	0.0	17.4801567676	22.7335663719	7.1344882968
452	1	0.0	14.8473073035	-0.9627127937	7.134166711
453	1	0.0	17.4797424829	1.6709477117	7.1342734156
454	1	0.0	20.1128981304	-0.9627153219	7.1342474483
455	1	0.0	17.479741399	17.4670520765	7.1350784957
456	1	0.0	14.847276859	20.1000544152	7.134929579
457	1	0.0	20.1128312805	20.1002223248	7.1344883145
458	1	0.0	12.214618435	22.7334659262	7.1342820013
459	1	0.0	9.5816243578	20.0999179887	7.1344524256
460	1	0.0	9.5819160057	-0.9631146551	7.1340249957
461	1	0.0	6.9488972199	22.733245943	7.1339696264
462	1	0.0	12.2145631888	1.6705000176	7.134190306
463	1	0.0	14.8469268664	4.3039425125	7.1345663379
464	1	0.0	22.7459467138	22.7335828558	7.1340206667
465	1	0.0	4.3155872297	20.0999203429	7.133874834
466	1	0.0	6.9488153202	1.6701592764	7.1340271878
467	1	0.0	4.3157656924	-0.9631824327	7.1337817145
468	1	0.0	20.1122038369	4.3041899108	7.1346653017
469	1	0.0	12.2142782351	17.4667598603	7.1352882377
470	1	0.0	17.4792712731	6.9369090778	7.1350169793
471	1	0.0	14.8467200253	14.8340994854	7.1355212796
472	1	0.0	1.6825238931	22.7333094167	7.1335843111
473	1	0.0	6.9483948301	17.4667833376	7.1344623957
474	1	0.0	20.1122914266	14.8342992681	7.1349050673
475	1	0.0	22.7456128594	1.6707064242	7.1344500775
476	1	0.0	22.7455715011	17.4670523917	7.1342662169
477	1	0.0	17.4792682634	12.2016900502	7.1353168689
478	1	0.0	9.581632599	4.303350336	7.1343861976
479	1	0.0	9.5812133247	14.8338428083	7.1353181495
480	1	0.0	14.8466084405	9.5691226351	7.1352708298
481	1	0.0	12.2141721368	6.9363777766	7.1348718107
482	1	0.0	-0.9508865693	20.1000434115	7.1336994548
483	1	0.0	1.6820435812	17.4669026537	7.1339808869
484	1	0.0	-0.9508707461	-0.9629005781	7.1340476952
485	1	0.0	4.3151614156	4.3034505499	7.1346414685
486	1	0.0	1.6821481622	1.6703963884	7.1343618205
487	1	0.0	6.9481590957	6.9362136493	7.1349434121
488	1	0.0	12.2138691984	12.2013815948	7.1355747645
489	1	0.0	20.1118940371	9.5694644815	7.1352132884
490	1	0.0	9.5810727776	9.568802807	7.1353103969
491	1	0.0	4.3149205168	14.8340783083	7.134460242
492	1	0.0	-0.9514605919	4.3037430658	7.1347966941
493	1	0.0	22.7448952833	6.936921595	7.1350034016
494	1	0.0	6.948005119	12.2013155268	7.1351499997
495	1	0.0	1.6815215536	6.9364537123	7.1349574605
496	1	0.0	4.3146962246	9.5689386045	7.1350174988
497	1	0.0	-0.9515760793	14.8342578281	7.1344559758
498	1	0.0	22.7449344282	12.2018426397	7.134969716
499	1	0.0	1.6813475359	12.2016552152	7.1346768829
500	1	0.0	-0.9519978277	9.5693332519	7.1349632503
501	1	0.0	18.7964428972	21.4167289662	8.45668243
502	1	0.0	16.163780512	-2.2793006851	8.4561792015
503	1	0.0	16.1633402142	18.7832807308	8.4575000679
504	1	0.0	18.7964522016	0.3544020662	8.4559444629
505	1	0.0	13.5308238385	21.416860099	8.4566838708
506	1	0.0	16.1636814362	2.9878640296	8.4566140687
507	1	0.0	21.4295277317	-2.2795521073	8.456001172
508	1	0.0	10.8976291877	18.7832595918	8.4571141994
509	1	0.0	8.2652778397	21.4166119386	8.4562883801
510	1	0.0	5.6318078157	18.7832454849	8.4562689568
511	1	0.0	8.2658802831	0.3539104551	8.4559244923
512	1	0.0	21.4290193438	18.7832043478	8.4564855591
513	1	0.0	5.6326142995	-2.2797125707	8.4556592507
514	1	0.0	18.7957593911	16.1502184051	8.4574429216
515	1	0.0	10.8985357031	-2.2795147083	8.4562261619
516	1	0.0	13.5313292479	0.3543161182	8.4562702397
517	1	0.0	2.9990308506	21.416545993	8.4555339346
518	1	0.0	10.8986887841	2.987381069	8.4564868298
519	1	0.0	18.7958677829	5.6208151406	8.4571901929
520	1	0.0	5.6325606585	2.9869793603	8.4560149597
521	1	0.0	13.5309958031	5.6205350971	8.4572374022
522	1	0.0	0.3660564797	-2.2798933575	8.4553581552
523	1	0.0	13.5302332197	16.1500792685	8.458121427
524	1	0.0	24.0624652178	21.4164841364	8.4555887005
525	1	0.0	21.4290263848	2.9877299516	8.4562891881
526	1	0.0	16.1629893337	8.2530886863	8.4578550693
527	1	0.0	2.9994020713	0.3536527695	8.455624124
528	1	0.0	8.2644107118	16.1501791621	8.4571477699
529	1	0.0	16.1627643242	13.5174792251	8.4580857373
530	1	0.0	0.3652990033	18.7831819015	8.4557985368
531	1	0.0	18.7953028307	10.8853784876	8.4579972904
532	1	0.0	8.2654448366	5.6199482476	8.4566366365
533	1	0.0	24.0625240983	0.3539635438	8.4560018776
534	1	0.0	13.5302625169	10.8850472896	8.4580779097
535	1	0.0	2.9981584733	16.1502795862	8.4564205459
536	1	0.0	10.8973146111	13.5173413716	8.4581576985
537	1	0.0	5.6311082866	13.5176384106	8.4570028777
538	1	0.0	10.8979791919	8.2526299067	8.457475397
539	1	0.0	0.3655692826	2.9871873223	8.4564390958
540	1	0.0	21.4282447005	8.2532358199	8.4575594205
541	1	0.0	21.4282006165	13.5177441004	8.457496325
542	1	0.0	2.9985251206	5.620082541	8.4568058947
543	1	0.0	24.0615339403	16.1502847289	8.4566342408
544	1	0.0	5.6314993066	8.2526475979	8.4571732848
545	1	0.0	24.0616907419	5.6205220283	8.4567858821
546	1	0.0	8.2644590747	10.8849788208	8.4577057993
547	1	0.0	0.3644924968	13.5176982384	8.4569101938
548	1	0.0	2.9977346359	10.8852819537	8.4569755164
549	1	0.0	24.0610865634	10.885438755	8.4574137407
550	1	0.0	0.3646134658	8.2529509938	8.4569857886
551	1	0.0	17.4803955747	20.0997962732	9.7791711002
552	1	0.0	17.4800035253	-0.9620744366	9.7778830629
553	1	0.0	14.8475195035	22.7338291734	9.7782363209
554	1	0.0	20.1133353613	22.7335261576	9.7781864478
555	1	0.0	6.949001492	20.099383394	9.7780790713
556	1	0.0	4.3162456701	22.732921683	9.7770841426
557	1	0.0	12.2145460634	20.0998917293	9.778751019
558	1	0.0	9.5823867484	22.733135236	9.7779426939
559	1	0.0	14.8473056458	17.4662980727	9.7800861362
560	1	0.0	6.9496645656	-0.9632162554	9.7774495383
561	1	0.0	20.1121312105	1.6716322349	9.7781306306
562	1	0.0	12.2152028836	-0.9626506026	9.7780761872
563	1	0.0	20.1128692792	17.4664835083	9.7790529974
564	1	0.0	22.7463313173	20.0995497969	9.7777514338
565	1	0.0	1.6825997517	20.0994144613	9.7771808511
566	1	0.0	9.5812892848	17.4662774017	9.7792531965
567	1	0.0	22.746044751	-0.9627581791	9.7778614958
568	1	0.0	9.582564044	1.6703961169	9.7781521309
569	1	0.0	4.3153289639	17.4663509788	9.7781953243
570	1	0.0	14.8472946064	1.6714098385	9.778568187
571	1	0.0	4.3163041301	1.6700270369	9.7776044879
572	1	0.0	17.4790525641	4.3049648669	9.7794343185
573	1	0.0	-0.9502078777	22.7328155504	9.7769575493
574	1	0.0	1.6831090686	-0.9635506479	9.7770695373
575	1	0.0	12.2148540682	4.3039054755	9.7792376827
576	1	0.0	6.9493315629	4.3030937566	9.778411194
577	1	0.0	17.4795817896	14.8336079009	9.7801619822
578	1	0.0	-0.9511392874	1.6706823413	9.7783000269
579	1	0.0	-0.9511921903	17.4665846364	9.7780428744
580	1	0.0	14.8466354291	6.9370304797	9.7804708284
581	1	0.0	6.9478383113	14.8336057008	9.7793406065
582	1	0.0	9.5819451474	6.9358402743	9.7795116363
583	1	0.0	22.7445767464	4.3047549464	9.7788517112
584	1	0.0	20.1111802766	6.9377416924	9.780158417
585	1	0.0	17.4786707875	9.5695408928	9.7808746634
586	1	0.0	1.6818049115	4.3038303098	9.7788986553
587	1	0.0	14.8466442077	12.2009614918	9.7808991889
588	1	0.0	12.2141395144	14.8331536387	9.7807632548
589	1	0.0	20.1115044746	12.2018444922	9.7803643583
590	1	0.0	4.3148093293	6.9365044124	9.7794044363
591	1	0.0	12.2142651823	9.5684438701	9.7806253665
592	1	0.0	1.6814173701	14.8339479983	9.7786927378
593	1	0.0	22.7449135444	14.8341376461	9.7793363694
594	1	0.0	4.3142022906	12.2015757959	9.7792296335