
     Program PWSCF v.7.0 starts on 15Nov2022 at 14: 1:17 

     This program is part of the open-source Quantum ESPRESSO suite
     for quantum simulation of materials; please cite
         "P. Giannozzi et al., J. Phys.:Condens. Matter 21 395502 (2009);
         "P. Giannozzi et al., J. Phys.:Condens. Matter 29 465901 (2017);
         "P. Giannozzi et al., J. Chem. Phys. 152 154105 (2020);
          URL http://www.quantum-espresso.org", 
     in publications or presentations arising from this work. More details at
     http://www.quantum-espresso.org/quote

     Parallel version (MPI), running on    16 processors

     MPI processes distributed on     1 nodes
     R & G space division:  proc/nbgrp/npool/nimage =      16
     117861 MiB available memory on the printing compute node when the environment starts
 
     Waiting for input...
     Reading input from standard input

     Current dimensions of program PWSCF are:
     Max number of different atomic species (ntypx) = 10
     Max number of k-points (npk) =  40000
     Max angular momentum in pseudopotentials (lmaxx) =  4

     File ./pwscf.update deleted, as requested

     File ./pwscf.fire deleted, as requested
     file H.pbe-kjpaw_psl.1.0.0.UPF: wavefunction(s)  1S renormalized
     file N.pbe-n-kjpaw_psl.1.0.0.UPF: wavefunction(s)  2S renormalized

     gamma-point specific algorithms are used

     Subspace diagonalization in iterative solution of the eigenvalue problem:
     a serial algorithm will be used

 
     Parallelization info
     --------------------
     sticks:   dense  smooth     PW     G-vecs:    dense   smooth      PW
     Min         114     114     28                 3678     3678     449
     Max         116     116     30                 3684     3684     456
     Sum        1829    1829    457                58893    58893    7249
 
     Using Slab Decomposition
 


     bravais-lattice index     =            1
     lattice parameter (alat)  =      12.0000  a.u.
     unit-cell volume          =    1728.0000 (a.u.)^3
     number of atoms/cell      =            4
     number of atomic types    =            2
     number of electrons       =         8.00
     number of Kohn-Sham states=            8
     kinetic-energy cutoff     =      40.0000  Ry
     charge density cutoff     =     160.0000  Ry
     scf convergence threshold =      1.0E-06
     mixing beta               =       0.7000
     number of iterations used =            8  plain     mixing
     energy convergence thresh.=      1.0E-06
     force convergence thresh. =      5.0E-04
     Exchange-correlation= SLA  PW   PBX  PBC
                           (   1   4   3   4   0   0   0)
     nstep                     =          455


     celldm(1)=  12.000000  celldm(2)=   0.000000  celldm(3)=   0.000000
     celldm(4)=   0.000000  celldm(5)=   0.000000  celldm(6)=   0.000000

     crystal axes: (cart. coord. in units of alat)
               a(1) = (   1.000000   0.000000   0.000000 )  
               a(2) = (   0.000000   1.000000   0.000000 )  
               a(3) = (   0.000000   0.000000   1.000000 )  

     reciprocal axes: (cart. coord. in units 2 pi/alat)
               b(1) = (  1.000000  0.000000  0.000000 )  
               b(2) = (  0.000000  1.000000  0.000000 )  
               b(3) = (  0.000000  0.000000  1.000000 )  


     PseudoPot. # 1 for H  read from file:
     ./H.pbe-kjpaw_psl.1.0.0.UPF
     MD5 check sum: 558557d8d69ab0f531dece9dcd46538f
     Pseudo is Projector augmented-wave, Zval =  1.0
     Generated using &quot;atomic&quot; code by A. Dal Corso  v.6.4.1
     Shape of augmentation charge: PSQ
     Using radial grid of  929 points,  2 beta functions with: 
                l(1) =   0
                l(2) =   0
     Q(r) pseudized with 0 coefficients 


     PseudoPot. # 2 for N  read from file:
     ./N.pbe-n-kjpaw_psl.1.0.0.UPF
     MD5 check sum: 56adaa6d22142344efd0663c987386a3
     Pseudo is Projector augmented-wave + core cor, Zval =  5.0
     Generated using "atomic" code by A. Dal Corso  v.5.3.0 svn rev. 11974
     Shape of augmentation charge: PSQ
     Using radial grid of 1085 points,  4 beta functions with: 
                l(1) =   0
                l(2) =   0
                l(3) =   1
                l(4) =   1
     Q(r) pseudized with 0 coefficients 


     atomic species   valence    mass     pseudopotential
        H              1.00     1.00783     H ( 1.00)
        N              5.00    14.00674     N ( 1.00)

     No symmetry found



   Cartesian axes

     site n.     atom                  positions (alat units)
         1           N   tau(   1) = (   0.0000001   0.0000247   0.4759312  )
         2           H   tau(   2) = (   0.1287413   0.0743755   0.4139862  )
         3           H   tau(   3) = (  -0.1287413   0.0743757   0.4139867  )
         4           H   tau(   4) = (  -0.0000001  -0.1485482   0.4137749  )

     number of k points=     1  Gaussian smearing, width (Ry)=  0.0500
                       cart. coord. in units 2pi/alat
        k(    1) = (   0.0000000   0.0000000   0.0000000), wk =   2.0000000

     Dense  grid:    29447 G-vectors     FFT dimensions: (  50,  50,  50)

     Estimated max dynamical RAM per process >       3.59 MB

     Estimated total dynamical RAM >      57.39 MB

     Check: negative core charge=   -0.000004

     Initial potential from superposition of free atoms

     starting charge       8.0000, renormalised to       8.0000

     negative rho (up, down):  4.261E-04 0.000E+00
     Starting wfcs are    7 randomized atomic wfcs +    1 random wfcs
     Checking if some PAW data can be deallocated... 

     total cpu time spent up to now is        0.1 secs

     Self-consistent Calculation

     iteration #  1     ecut=    40.00 Ry     beta= 0.70
     Davidson diagonalization with overlap
     ethr =  1.00E-02,  avg # of iterations =  8.0

     negative rho (up, down):  1.651E-03 0.000E+00

     total cpu time spent up to now is        0.1 secs

     total energy              =     -31.53043111 Ry
     estimated scf accuracy    <       0.66551476 Ry

     iteration #  2     ecut=    40.00 Ry     beta= 0.70
     Davidson diagonalization with overlap
     ethr =  8.32E-03,  avg # of iterations =  2.0

     negative rho (up, down):  8.411E-04 0.000E+00

     total cpu time spent up to now is        0.1 secs

     total energy              =     -31.68077846 Ry
     estimated scf accuracy    <       0.54699022 Ry

     iteration #  3     ecut=    40.00 Ry     beta= 0.70
     Davidson diagonalization with overlap
     ethr =  6.84E-03,  avg # of iterations =  2.0

     negative rho (up, down):  2.512E-03 0.000E+00

     total cpu time spent up to now is        0.1 secs

     total energy              =     -31.78994412 Ry
     estimated scf accuracy    <       0.00613566 Ry

     iteration #  4     ecut=    40.00 Ry     beta= 0.70
     Davidson diagonalization with overlap
     ethr =  7.67E-05,  avg # of iterations =  7.0

     negative rho (up, down):  2.066E-03 0.000E+00

     total cpu time spent up to now is        0.2 secs

     total energy              =     -31.79110629 Ry
     estimated scf accuracy    <       0.00057803 Ry

     iteration #  5     ecut=    40.00 Ry     beta= 0.70
     Davidson diagonalization with overlap
     ethr =  7.23E-06,  avg # of iterations =  7.0

     negative rho (up, down):  2.240E-03 0.000E+00

     total cpu time spent up to now is        0.2 secs

     total energy              =     -31.79112785 Ry
     estimated scf accuracy    <       0.00001997 Ry

     iteration #  6     ecut=    40.00 Ry     beta= 0.70
     Davidson diagonalization with overlap
     ethr =  2.50E-07,  avg # of iterations =  2.0

     negative rho (up, down):  2.265E-03 0.000E+00

     total cpu time spent up to now is        0.2 secs

     total energy              =     -31.79113381 Ry
     estimated scf accuracy    <       0.00000983 Ry

     iteration #  7     ecut=    40.00 Ry     beta= 0.70
     Davidson diagonalization with overlap
     ethr =  1.23E-07,  avg # of iterations =  2.0

     negative rho (up, down):  2.266E-03 0.000E+00

     total cpu time spent up to now is        0.2 secs

     End of self-consistent calculation

          k = 0.0000 0.0000 0.0000 (  3625 PWs)   bands (ev):

   -20.5517 -10.6220 -10.6191  -5.5922  -1.0605   2.0929   2.5098   2.6679

     the Fermi energy is    -3.3264 ev

!    total energy              =     -31.79113515 Ry
     estimated scf accuracy    <       0.00000007 Ry
     smearing contrib. (-TS)   =      -0.00000086 Ry
     internal energy E=F+TS    =     -31.79113430 Ry

     convergence has been achieved in   7 iterations

     negative rho (up, down):  2.266E-03 0.000E+00
  * IN ARTn_QE::           4
 Elements:H  N  
     |> Initialize_ARTn()
     |> NPERP_LIMITATION:: Actual nperp 4
     |> NPERP_LIMITATION::List: 4 8 12 16 -1
 --------------------------------------------------
  * ARTn::UNITS::E2au::      1.0000     au2E      1.0000    
  * ARTn::UNITS::L2au::      1.0000     au2L      1.0000    
  * ARTn::UNITS::T2au::      1.0000     au2T      1.0000    
  * ARTn::UNITS::F2au::      1.0000     au2F      1.0000    
  * ARTn::UNITS::H2au::      1.0000     au2H      1.0000    
  * ARTn::UNITS::Mass::      911.44    
 --------------------------------------------------
 WARNING:: QE force threshold is lower than ARTn  5.000000000000000E-004
  1.000000000000000E-003

     Forces acting on atoms (cartesian axes, Ry/au):

     atom    1 type  2   force =     0.00000000    0.00000000   -0.68358318
     atom    2 type  1   force =     0.00000000    0.00000000    0.00000000
     atom    3 type  1   force =     0.00000000    0.00000000    0.00000000
     atom    4 type  1   force =     0.00000000    0.00000000    0.00000000

     Total force =     0.683583     Total SCF correction =     0.000120

     Entering FIRE :       iteration =     1

     FIRE Parameters: P = 0.00000000, dt = 20.00, alpha = 0.000 nsteppos =   1 at step  1


ATOMIC_POSITIONS (angstrom)
N             0.0000006633        0.0001566805        2.8634703475
H             0.8175233785        0.4722939697        2.6288644578
H            -0.8175232760        0.4722948789        2.6288679375
H            -0.0000007658       -0.9432995491        2.6275226740



     Writing config-only to output data dir ./pwscf.save/
     NEW-OLD atomic charge density approx. for the potential

     Check: negative core charge=   -0.000004

     negative rho (up, down):  1.859E-03 0.000E+00

     total cpu time spent up to now is        0.3 secs

     Self-consistent Calculation

     iteration #  1     ecut=    40.00 Ry     beta= 0.70
     Davidson diagonalization with overlap
     ethr =  1.00E-06,  avg # of iterations = 10.0

     negative rho (up, down):  2.265E-03 0.000E+00

     total cpu time spent up to now is        0.3 secs

     total energy              =     -31.76712187 Ry
     estimated scf accuracy    <       0.02848103 Ry

     iteration #  2     ecut=    40.00 Ry     beta= 0.70
     Davidson diagonalization with overlap
     ethr =  3.56E-04,  avg # of iterations =  2.0

     negative rho (up, down):  2.195E-03 0.000E+00

     total cpu time spent up to now is        0.3 secs

     total energy              =     -31.77376163 Ry
     estimated scf accuracy    <       0.01361853 Ry

     iteration #  3     ecut=    40.00 Ry     beta= 0.70
     Davidson diagonalization with overlap
     ethr =  1.70E-04,  avg # of iterations =  2.0

     negative rho (up, down):  2.331E-03 0.000E+00

     total cpu time spent up to now is        0.3 secs

     total energy              =     -31.77679162 Ry
     estimated scf accuracy    <       0.00025572 Ry

     iteration #  4     ecut=    40.00 Ry     beta= 0.70
     Davidson diagonalization with overlap
     ethr =  3.20E-06,  avg # of iterations =  4.0

     negative rho (up, down):  2.398E-03 0.000E+00

     total cpu time spent up to now is        0.4 secs

     total energy              =     -31.77683858 Ry
     estimated scf accuracy    <       0.00000920 Ry

     iteration #  5     ecut=    40.00 Ry     beta= 0.70
     Davidson diagonalization with overlap
     ethr =  1.15E-07,  avg # of iterations =  2.0

     negative rho (up, down):  2.400E-03 0.000E+00

     total cpu time spent up to now is        0.4 secs

     End of self-consistent calculation

          k = 0.0000 0.0000 0.0000 (  3625 PWs)   bands (ev):

   -20.7168 -11.2687 -11.2681  -5.1297  -0.9795   2.1719   2.5097   2.7384

     the Fermi energy is    -3.0546 ev

!    total energy              =     -31.77683987 Ry
     estimated scf accuracy    <       0.00000091 Ry
     smearing contrib. (-TS)   =      -0.00000513 Ry
     internal energy E=F+TS    =     -31.77683473 Ry

     convergence has been achieved in   5 iterations

     negative rho (up, down):  2.400E-03 0.000E+00
  * IN ARTn_QE::           4
 Elements:H  N  

     Forces acting on atoms (cartesian axes, Ry/au):

     atom    1 type  2   force =    -0.00000009    0.00056402    0.00000000
     atom    2 type  1   force =     0.06324751    0.03648477   -0.02575651
     atom    3 type  1   force =    -0.06324712    0.03648406   -0.02575561
     atom    4 type  1   force =    -0.00000030   -0.07353284   -0.02607617

     Total force =     0.134450     Total SCF correction =     0.000933

     Entering FIRE :       iteration =     2

     FIRE Parameters: P = 0.00000000, dt = 22.00, alpha = 0.198 nsteppos =   6 at step  2


ATOMIC_POSITIONS (angstrom)
N             0.0000006384        0.0003151728        2.8634703475
H             0.8352963406        0.4825464271        2.6216267098
H            -0.8352961298        0.4825471364        2.6216304434
H            -0.0000008492       -0.9639627563        2.6201950993



     Writing config-only to output data dir ./pwscf.save/
     NEW-OLD atomic charge density approx. for the potential

     Check: negative core charge=   -0.000004

     negative rho (up, down):  2.211E-03 0.000E+00

     total cpu time spent up to now is        0.4 secs

     Self-consistent Calculation

     iteration #  1     ecut=    40.00 Ry     beta= 0.70
     Davidson diagonalization with overlap
     ethr =  1.00E-06,  avg # of iterations =  4.0

     negative rho (up, down):  2.182E-03 0.000E+00

     total cpu time spent up to now is        0.4 secs

     total energy              =     -31.78267984 Ry
     estimated scf accuracy    <       0.00225377 Ry

     iteration #  2     ecut=    40.00 Ry     beta= 0.70
     Davidson diagonalization with overlap
     ethr =  2.82E-05,  avg # of iterations =  2.0

     negative rho (up, down):  2.247E-03 0.000E+00

     total cpu time spent up to now is        0.5 secs

     total energy              =     -31.78328937 Ry
     estimated scf accuracy    <       0.00168864 Ry

     iteration #  3     ecut=    40.00 Ry     beta= 0.70
     Davidson diagonalization with overlap
     ethr =  2.11E-05,  avg # of iterations =  2.0

     negative rho (up, down):  2.277E-03 0.000E+00

     total cpu time spent up to now is        0.5 secs

     total energy              =     -31.78360313 Ry
     estimated scf accuracy    <       0.00000555 Ry

     iteration #  4     ecut=    40.00 Ry     beta= 0.70
     Davidson diagonalization with overlap
     ethr =  6.94E-08,  avg # of iterations =  2.0

     negative rho (up, down):  2.278E-03 0.000E+00

     total cpu time spent up to now is        0.5 secs

     total energy              =     -31.78360530 Ry
     estimated scf accuracy    <       0.00000146 Ry

     iteration #  5     ecut=    40.00 Ry     beta= 0.70
     Davidson diagonalization with overlap
     ethr =  1.83E-08,  avg # of iterations =  2.0

     negative rho (up, down):  2.278E-03 0.000E+00

     total cpu time spent up to now is        0.5 secs

     End of self-consistent calculation

          k = 0.0000 0.0000 0.0000 (  3625 PWs)   bands (ev):

   -20.4908 -11.1003 -11.0961  -5.1084  -1.0132   2.1102   2.4618   2.7169

     the Fermi energy is    -3.0608 ev

!    total energy              =     -31.78360542 Ry
     estimated scf accuracy    <       0.00000007 Ry
     smearing contrib. (-TS)   =      -0.00000656 Ry
     internal energy E=F+TS    =     -31.78359886 Ry

     convergence has been achieved in   5 iterations

     negative rho (up, down):  2.278E-03 0.000E+00
  * IN ARTn_QE::           4
 Elements:H  N  

     Forces acting on atoms (cartesian axes, Ry/au):

     atom    1 type  2   force =    -0.00000027   -0.00024705    0.00000000
     atom    2 type  1   force =     0.02519317    0.01453785   -0.01692959
     atom    3 type  1   force =    -0.02519288    0.01453763   -0.01692907
     atom    4 type  1   force =    -0.00000002   -0.02882842   -0.01697326

     Total force =     0.058176     Total SCF correction =     0.000155

     Entering FIRE :       iteration =     3

     FIRE Parameters: P = 0.00001545, dt = 24.20, alpha = 0.196 nsteppos =   7 at step  3


ATOMIC_POSITIONS (angstrom)
N             0.0000004854        0.0003369421        2.8634703475
H             0.8630879131        0.4985805817        2.6071124801
H            -0.8630874647        0.4985810096        2.6071166893
H            -0.0000009337       -0.9960525535        2.6055805034



     Writing config-only to output data dir ./pwscf.save/
     NEW-OLD atomic charge density approx. for the potential

     Check: negative core charge=   -0.000004

     negative rho (up, down):  1.990E-03 0.000E+00

     total cpu time spent up to now is        0.6 secs

     Self-consistent Calculation

     iteration #  1     ecut=    40.00 Ry     beta= 0.70
     Davidson diagonalization with overlap
     ethr =  1.00E-06,  avg # of iterations =  7.0

     negative rho (up, down):  1.924E-03 0.000E+00

     total cpu time spent up to now is        0.6 secs

     total energy              =     -31.78185826 Ry
     estimated scf accuracy    <       0.00557639 Ry

     iteration #  2     ecut=    40.00 Ry     beta= 0.70
     Davidson diagonalization with overlap
     ethr =  6.97E-05,  avg # of iterations =  2.0

     negative rho (up, down):  2.014E-03 0.000E+00

     total cpu time spent up to now is        0.6 secs

     total energy              =     -31.78335103 Ry
     estimated scf accuracy    <       0.00478851 Ry

     iteration #  3     ecut=    40.00 Ry     beta= 0.70
     Davidson diagonalization with overlap
     ethr =  5.99E-05,  avg # of iterations =  2.0

     negative rho (up, down):  2.057E-03 0.000E+00

     total cpu time spent up to now is        0.6 secs

     total energy              =     -31.78422238 Ry
     estimated scf accuracy    <       0.00001408 Ry

     iteration #  4     ecut=    40.00 Ry     beta= 0.70
     Davidson diagonalization with overlap
     ethr =  1.76E-07,  avg # of iterations =  2.0

     negative rho (up, down):  2.058E-03 0.000E+00

     total cpu time spent up to now is        0.6 secs

     total energy              =     -31.78422820 Ry
     estimated scf accuracy    <       0.00000402 Ry

     iteration #  5     ecut=    40.00 Ry     beta= 0.70
     Davidson diagonalization with overlap
     ethr =  5.03E-08,  avg # of iterations =  2.0

     negative rho (up, down):  2.057E-03 0.000E+00

     total cpu time spent up to now is        0.7 secs

     End of self-consistent calculation

          k = 0.0000 0.0000 0.0000 (  3625 PWs)   bands (ev):

   -20.1464 -10.8314 -10.8266  -5.0793  -1.0760   2.0026   2.3769   2.6697

     the Fermi energy is    -3.0777 ev

!    total energy              =     -31.78422856 Ry
     estimated scf accuracy    <       0.00000016 Ry
     smearing contrib. (-TS)   =      -0.00000980 Ry
     internal energy E=F+TS    =     -31.78421876 Ry

     convergence has been achieved in   5 iterations

     negative rho (up, down):  2.057E-03 0.000E+00
  * IN ARTn_QE::           4
 Elements:H  N  

     Forces acting on atoms (cartesian axes, Ry/au):

     atom    1 type  2   force =     0.00000049   -0.00032722    0.00000000
     atom    2 type  1   force =    -0.02559031   -0.01476183   -0.00512333
     atom    3 type  1   force =     0.02558975   -0.01476136   -0.00512374
     atom    4 type  1   force =     0.00000006    0.02985041   -0.00506745

     Total force =     0.052104     Total SCF correction =     0.000217

     Entering FIRE :       iteration =     4

     FIRE Parameters: P = -.00001712, dt = 12.10, alpha = 0.200 nsteppos =   0 at step  4


ATOMIC_POSITIONS (angstrom)
N             0.0000006039        0.0002982424        2.8634703475
H             0.8470168361        0.4893086829        2.6139340892
H            -0.8470165537        0.4893092912        2.6139380258
H            -0.0000008863       -0.9774702365        2.6124570451



     Writing config-only to output data dir ./pwscf.save/
     NEW-OLD atomic charge density approx. for the potential

     Check: negative core charge=   -0.000004

     negative rho (up, down):  2.250E-03 0.000E+00

     total cpu time spent up to now is        0.7 secs

     Self-consistent Calculation

     iteration #  1     ecut=    40.00 Ry     beta= 0.70
     Davidson diagonalization with overlap
     ethr =  1.00E-06,  avg # of iterations =  4.0

     negative rho (up, down):  2.262E-03 0.000E+00

     total cpu time spent up to now is        0.7 secs

     total energy              =     -31.78469459 Ry
     estimated scf accuracy    <       0.00170155 Ry

     iteration #  2     ecut=    40.00 Ry     beta= 0.70
     Davidson diagonalization with overlap
     ethr =  2.13E-05,  avg # of iterations =  2.0

     negative rho (up, down):  2.203E-03 0.000E+00

     total cpu time spent up to now is        0.7 secs

     total energy              =     -31.78514454 Ry
     estimated scf accuracy    <       0.00134639 Ry

     iteration #  3     ecut=    40.00 Ry     beta= 0.70
     Davidson diagonalization with overlap
     ethr =  1.68E-05,  avg # of iterations =  2.0

     negative rho (up, down):  2.185E-03 0.000E+00

     total cpu time spent up to now is        0.8 secs

     total energy              =     -31.78539694 Ry
     estimated scf accuracy    <       0.00000404 Ry

     iteration #  4     ecut=    40.00 Ry     beta= 0.70
     Davidson diagonalization with overlap
     ethr =  5.05E-08,  avg # of iterations =  2.0

     negative rho (up, down):  2.184E-03 0.000E+00

     total cpu time spent up to now is        0.8 secs

     total energy              =     -31.78539860 Ry
     estimated scf accuracy    <       0.00000100 Ry

     iteration #  5     ecut=    40.00 Ry     beta= 0.70
     Davidson diagonalization with overlap
     ethr =  1.25E-08,  avg # of iterations =  2.0

     negative rho (up, down):  2.185E-03 0.000E+00

     total cpu time spent up to now is        0.8 secs

     End of self-consistent calculation

          k = 0.0000 0.0000 0.0000 (  3625 PWs)   bands (ev):

   -20.3424 -10.9798 -10.9758  -5.0998  -1.0382   2.0672   2.4286   2.6992

     the Fermi energy is    -3.0690 ev

!    total energy              =     -31.78539866 Ry
     estimated scf accuracy    <       0.00000006 Ry
     smearing contrib. (-TS)   =      -0.00000761 Ry
     internal energy E=F+TS    =     -31.78539106 Ry

     convergence has been achieved in   5 iterations

     negative rho (up, down):  2.185E-03 0.000E+00
  * IN ARTn_QE::           4
 Elements:H  N  

     Forces acting on atoms (cartesian axes, Ry/au):

     atom    1 type  2   force =    -0.00000028   -0.00020589    0.00000000
     atom    2 type  1   force =     0.00182412    0.00105250   -0.01152647
     atom    3 type  1   force =    -0.00182390    0.00105235   -0.01152627
     atom    4 type  1   force =     0.00000006   -0.00189896   -0.01154792

     Total force =     0.020288     Total SCF correction =     0.000135

     Entering FIRE :       iteration =     5

     FIRE Parameters: P = -.00000000, dt =  6.05, alpha = 0.200 nsteppos =   0 at step  5


ATOMIC_POSITIONS (angstrom)
N             0.0000005770        0.0003077745        2.8634703475
H             0.8481432461        0.4899584605        2.6139068917
H            -0.8481429355        0.4899590457        2.6139108500
H            -0.0000008876       -0.9787793007        2.6124270171



     Writing config-only to output data dir ./pwscf.save/
     NEW-OLD atomic charge density approx. for the potential

     Check: negative core charge=   -0.000004

     negative rho (up, down):  2.173E-03 0.000E+00

     total cpu time spent up to now is        0.9 secs

     Self-consistent Calculation

     iteration #  1     ecut=    40.00 Ry     beta= 0.70
     Davidson diagonalization with overlap
     ethr =  1.00E-06,  avg # of iterations =  2.0

     Threshold (ethr) on eigenvalues was too large:
     Diagonalizing with lowered threshold

     Davidson diagonalization with overlap
     ethr =  9.90E-08,  avg # of iterations =  1.0

     negative rho (up, down):  2.171E-03 0.000E+00

     total cpu time spent up to now is        0.9 secs

     total energy              =     -31.78540413 Ry
     estimated scf accuracy    <       0.00000884 Ry

     iteration #  2     ecut=    40.00 Ry     beta= 0.70
     Davidson diagonalization with overlap
     ethr =  1.10E-07,  avg # of iterations =  2.0

     negative rho (up, down):  2.175E-03 0.000E+00

     total cpu time spent up to now is        0.9 secs

     total energy              =     -31.78540643 Ry
     estimated scf accuracy    <       0.00000660 Ry

     iteration #  3     ecut=    40.00 Ry     beta= 0.70
     Davidson diagonalization with overlap
     ethr =  8.25E-08,  avg # of iterations =  2.0

     negative rho (up, down):  2.176E-03 0.000E+00

     total cpu time spent up to now is        0.9 secs

     End of self-consistent calculation

          k = 0.0000 0.0000 0.0000 (  3625 PWs)   bands (ev):

   -20.3285 -10.9707 -10.9665  -5.0970  -1.0410   2.0623   2.4247   2.6970

     the Fermi energy is    -3.0690 ev

!    total energy              =     -31.78540769 Ry
     estimated scf accuracy    <       0.00000002 Ry
     smearing contrib. (-TS)   =      -0.00000780 Ry
     internal energy E=F+TS    =     -31.78539989 Ry

     convergence has been achieved in   3 iterations

     negative rho (up, down):  2.176E-03 0.000E+00
  * IN ARTn_QE::           4
 Elements:H  N  

     Forces acting on atoms (cartesian axes, Ry/au):

     atom    1 type  2   force =     0.00000000    0.00000000   -0.68358318
     atom    2 type  1   force =     0.00000000    0.00000000    0.00000000
     atom    3 type  1   force =     0.00000000    0.00000000    0.00000000
     atom    4 type  1   force =     0.00000000    0.00000000    0.00000000

     Total force =     0.683583     Total SCF correction =     0.000072

     Entering FIRE :       iteration =     6

     FIRE Parameters: P = 0.00000000, dt = 20.00, alpha = 0.000 nsteppos =   1 at step  6


ATOMIC_POSITIONS (angstrom)
N             0.0000005770        0.0003077745        2.7047171843
H             0.8481432461        0.4899584605        2.6139068917
H            -0.8481429355        0.4899590457        2.6139108500
H            -0.0000008876       -0.9787793007        2.6124270171



     Writing config-only to output data dir ./pwscf.save/
     NEW-OLD atomic charge density approx. for the potential

     Check: negative core charge=   -0.000004

     negative rho (up, down):  1.554E-03 0.000E+00

     total cpu time spent up to now is        1.0 secs

     Self-consistent Calculation

     iteration #  1     ecut=    40.00 Ry     beta= 0.70
     Davidson diagonalization with overlap
     ethr =  1.00E-06,  avg # of iterations =  8.0

     negative rho (up, down):  2.039E-03 0.000E+00

     total cpu time spent up to now is        1.0 secs

     total energy              =     -31.76697577 Ry
     estimated scf accuracy    <       0.02332581 Ry

     iteration #  2     ecut=    40.00 Ry     beta= 0.70
     Davidson diagonalization with overlap
     ethr =  2.92E-04,  avg # of iterations =  2.0

     negative rho (up, down):  2.055E-03 0.000E+00

     total cpu time spent up to now is        1.0 secs

     total energy              =     -31.77201249 Ry
     estimated scf accuracy    <       0.00705597 Ry

     iteration #  3     ecut=    40.00 Ry     beta= 0.70
     Davidson diagonalization with overlap
     ethr =  8.82E-05,  avg # of iterations =  2.0

     negative rho (up, down):  2.207E-03 0.000E+00

     total cpu time spent up to now is        1.0 secs

     total energy              =     -31.77378397 Ry
     estimated scf accuracy    <       0.00049550 Ry

     iteration #  4     ecut=    40.00 Ry     beta= 0.70
     Davidson diagonalization with overlap
     ethr =  6.19E-06,  avg # of iterations =  2.0

     negative rho (up, down):  2.307E-03 0.000E+00

     total cpu time spent up to now is        1.0 secs

     total energy              =     -31.77387272 Ry
     estimated scf accuracy    <       0.00000912 Ry

     iteration #  5     ecut=    40.00 Ry     beta= 0.70
     Davidson diagonalization with overlap
     ethr =  1.14E-07,  avg # of iterations =  2.0

     negative rho (up, down):  2.304E-03 0.000E+00

     total cpu time spent up to now is        1.1 secs

     End of self-consistent calculation

          k = 0.0000 0.0000 0.0000 (  3625 PWs)   bands (ev):

   -20.3812 -11.3281 -11.3249  -4.8460  -0.9962   2.1046   2.4141   2.7291

     the Fermi energy is    -2.9211 ev

!    total energy              =     -31.77387369 Ry
     estimated scf accuracy    <       0.00000097 Ry
     smearing contrib. (-TS)   =      -0.00001880 Ry
     internal energy E=F+TS    =     -31.77385489 Ry

     convergence has been achieved in   5 iterations

     negative rho (up, down):  2.304E-03 0.000E+00
  * IN ARTn_QE::           4
 Elements:H  N  

     Forces acting on atoms (cartesian axes, Ry/au):

     atom    1 type  2   force =    -0.00000107    0.00038722    0.00000000
     atom    2 type  1   force =     0.03655393    0.02106933   -0.00990078
     atom    3 type  1   force =    -0.03655300    0.02106894   -0.00990044
     atom    4 type  1   force =     0.00000014   -0.04252549   -0.01005317

     Total force =     0.075272     Total SCF correction =     0.001150

     Entering FIRE :       iteration =     7

     FIRE Parameters: P = 0.00000000, dt = 22.00, alpha = 0.198 nsteppos =   6 at step  7


ATOMIC_POSITIONS (angstrom)
N             0.0000002760        0.0004165859        2.7047171843
H             0.8584151394        0.4958790790        2.6111247067
H            -0.8584145661        0.4958795544        2.6111287609
H            -0.0000008492       -0.9907292393        2.6096020101



     Writing config-only to output data dir ./pwscf.save/
     NEW-OLD atomic charge density approx. for the potential

     Check: negative core charge=   -0.000004

     negative rho (up, down):  2.199E-03 0.000E+00

     total cpu time spent up to now is        1.1 secs

     Self-consistent Calculation

     iteration #  1     ecut=    40.00 Ry     beta= 0.70
     Davidson diagonalization with overlap
     ethr =  1.00E-06,  avg # of iterations =  4.0

     negative rho (up, down):  2.183E-03 0.000E+00

     total cpu time spent up to now is        1.1 secs

     total energy              =     -31.77578326 Ry
     estimated scf accuracy    <       0.00061676 Ry

     iteration #  2     ecut=    40.00 Ry     beta= 0.70
     Davidson diagonalization with overlap
     ethr =  7.71E-06,  avg # of iterations =  2.0

     negative rho (up, down):  2.220E-03 0.000E+00

     total cpu time spent up to now is        1.1 secs

     total energy              =     -31.77594772 Ry
     estimated scf accuracy    <       0.00047557 Ry

     iteration #  3     ecut=    40.00 Ry     beta= 0.70
     Davidson diagonalization with overlap
     ethr =  5.94E-06,  avg # of iterations =  2.0

     negative rho (up, down):  2.238E-03 0.000E+00

     total cpu time spent up to now is        1.2 secs

     total energy              =     -31.77603578 Ry
     estimated scf accuracy    <       0.00000175 Ry

     iteration #  4     ecut=    40.00 Ry     beta= 0.70
     Davidson diagonalization with overlap
     ethr =  2.18E-08,  avg # of iterations =  2.0

     negative rho (up, down):  2.235E-03 0.000E+00

     total cpu time spent up to now is        1.2 secs

     End of self-consistent calculation

          k = 0.0000 0.0000 0.0000 (  3625 PWs)   bands (ev):

   -20.2571 -11.2301 -11.2257  -4.8268  -1.0175   2.0679   2.3799   2.7176

     the Fermi energy is    -2.9222 ev

!    total energy              =     -31.77603630 Ry
     estimated scf accuracy    <       0.00000054 Ry
     smearing contrib. (-TS)   =      -0.00002224 Ry
     internal energy E=F+TS    =     -31.77601406 Ry

     convergence has been achieved in   4 iterations

     negative rho (up, down):  2.235E-03 0.000E+00
  * IN ARTn_QE::           4
 Elements:H  N  

     Forces acting on atoms (cartesian axes, Ry/au):

     atom    1 type  2   force =     0.00000028   -0.00024061    0.00000000
     atom    2 type  1   force =     0.01576538    0.00909999   -0.00825069
     atom    3 type  1   force =    -0.01576569    0.00910027   -0.00825059
     atom    4 type  1   force =     0.00000003   -0.01795966   -0.00830786

     Total force =     0.034504     Total SCF correction =     0.000385

     Entering FIRE :       iteration =     8

     FIRE Parameters: P = 0.00000512, dt = 24.20, alpha = 0.196 nsteppos =   7 at step  8


ATOMIC_POSITIONS (angstrom)
N             0.0000001439        0.0003994091        2.7047171843
H             0.8749301688        0.5054042978        2.6047753562
H            -0.8749295119        0.5054048101        2.6047795428
H            -0.0000008009       -1.0097625370        2.6031878408



     Writing config-only to output data dir ./pwscf.save/
     NEW-OLD atomic charge density approx. for the potential

     Check: negative core charge=   -0.000004

     negative rho (up, down):  2.081E-03 0.000E+00

     total cpu time spent up to now is        1.2 secs

     Self-consistent Calculation

     iteration #  1     ecut=    40.00 Ry     beta= 0.70
     Davidson diagonalization with overlap
     ethr =  1.00E-06,  avg # of iterations =  4.0

     negative rho (up, down):  2.044E-03 0.000E+00

     total cpu time spent up to now is        1.3 secs

     total energy              =     -31.77562776 Ry
     estimated scf accuracy    <       0.00158715 Ry

     iteration #  2     ecut=    40.00 Ry     beta= 0.70
     Davidson diagonalization with overlap
     ethr =  1.98E-05,  avg # of iterations =  2.0

     negative rho (up, down):  2.102E-03 0.000E+00

     total cpu time spent up to now is        1.3 secs

     total energy              =     -31.77604646 Ry
     estimated scf accuracy    <       0.00129213 Ry

     iteration #  3     ecut=    40.00 Ry     beta= 0.70
     Davidson diagonalization with overlap
     ethr =  1.62E-05,  avg # of iterations =  2.0

     negative rho (up, down):  2.131E-03 0.000E+00

     total cpu time spent up to now is        1.3 secs

     total energy              =     -31.77628461 Ry
     estimated scf accuracy    <       0.00000454 Ry

     iteration #  4     ecut=    40.00 Ry     beta= 0.70
     Davidson diagonalization with overlap
     ethr =  5.68E-08,  avg # of iterations =  2.0

     negative rho (up, down):  2.130E-03 0.000E+00

     total cpu time spent up to now is        1.3 secs

     total energy              =     -31.77628625 Ry
     estimated scf accuracy    <       0.00000139 Ry

     iteration #  5     ecut=    40.00 Ry     beta= 0.70
     Davidson diagonalization with overlap
     ethr =  1.74E-08,  avg # of iterations =  2.0

     negative rho (up, down):  2.129E-03 0.000E+00

     total cpu time spent up to now is        1.3 secs

     End of self-consistent calculation

          k = 0.0000 0.0000 0.0000 (  3625 PWs)   bands (ev):

   -20.0634 -11.0737 -11.0696  -4.7990  -1.0550   2.0075   2.3226   2.6966

     the Fermi energy is    -2.9270 ev

!    total energy              =     -31.77628633 Ry
     estimated scf accuracy    <       0.00000009 Ry
     smearing contrib. (-TS)   =      -0.00002903 Ry
     internal energy E=F+TS    =     -31.77625730 Ry

     convergence has been achieved in   5 iterations

     negative rho (up, down):  2.129E-03 0.000E+00
  * IN ARTn_QE::           4
 Elements:H  N  

     Forces acting on atoms (cartesian axes, Ry/au):

     atom    1 type  2   force =     0.00000067   -0.00012442    0.00000000
     atom    2 type  1   force =    -0.01494158   -0.00862773   -0.00583067
     atom    3 type  1   force =     0.01494084   -0.00862723   -0.00583079
     atom    4 type  1   force =     0.00000007    0.01737938   -0.00585195

     Total force =     0.031617     Total SCF correction =     0.000144

     Entering FIRE :       iteration =     9

     FIRE Parameters: P = -.00000571, dt = 12.10, alpha = 0.200 nsteppos =   0 at step  9


ATOMIC_POSITIONS (angstrom)
N             0.0000002670        0.0003974215        2.7047171843
H             0.8654025528        0.4999082925        2.6074543987
H            -0.8654020007        0.4999088291        2.6074585082
H            -0.0000008191       -0.9987685632        2.6058974839



     Writing config-only to output data dir ./pwscf.save/
     NEW-OLD atomic charge density approx. for the potential

     Check: negative core charge=   -0.000004

     negative rho (up, down):  2.232E-03 0.000E+00

     total cpu time spent up to now is        1.4 secs

     Self-consistent Calculation

     iteration #  1     ecut=    40.00 Ry     beta= 0.70
     Davidson diagonalization with overlap
     ethr =  1.00E-06,  avg # of iterations =  4.0

     negative rho (up, down):  2.239E-03 0.000E+00

     total cpu time spent up to now is        1.4 secs

     total energy              =     -31.77643165 Ry
     estimated scf accuracy    <       0.00054984 Ry

     iteration #  2     ecut=    40.00 Ry     beta= 0.70
     Davidson diagonalization with overlap
     ethr =  6.87E-06,  avg # of iterations =  2.0

     negative rho (up, down):  2.202E-03 0.000E+00

     total cpu time spent up to now is        1.4 secs

     total energy              =     -31.77657942 Ry
     estimated scf accuracy    <       0.00043905 Ry

     iteration #  3     ecut=    40.00 Ry     beta= 0.70
     Davidson diagonalization with overlap
     ethr =  5.49E-06,  avg # of iterations =  2.0

     negative rho (up, down):  2.189E-03 0.000E+00

     total cpu time spent up to now is        1.4 secs

     total energy              =     -31.77666013 Ry
     estimated scf accuracy    <       0.00000142 Ry

     iteration #  4     ecut=    40.00 Ry     beta= 0.70
     Davidson diagonalization with overlap
     ethr =  1.77E-08,  avg # of iterations =  2.0

     negative rho (up, down):  2.191E-03 0.000E+00

     total cpu time spent up to now is        1.4 secs

     End of self-consistent calculation

          k = 0.0000 0.0000 0.0000 (  3625 PWs)   bands (ev):

   -20.1779 -11.1642 -11.1603  -4.8202  -1.0329   2.0431   2.3565   2.7090

     the Fermi energy is    -2.9266 ev

!    total energy              =     -31.77666060 Ry
     estimated scf accuracy    <       0.00000047 Ry
     smearing contrib. (-TS)   =      -0.00002433 Ry
     internal energy E=F+TS    =     -31.77663627 Ry

     convergence has been achieved in   4 iterations

     negative rho (up, down):  2.191E-03 0.000E+00
  * IN ARTn_QE::           4
 Elements:H  N  

     Forces acting on atoms (cartesian axes, Ry/au):

     atom    1 type  2   force =     0.00000021   -0.00013430    0.00000000
     atom    2 type  1   force =     0.00202802    0.00116592   -0.00724946
     atom    3 type  1   force =    -0.00202832    0.00116626   -0.00724947
     atom    4 type  1   force =     0.00000009   -0.00219788   -0.00729555

     Total force =     0.013196     Total SCF correction =     0.000350

     Entering FIRE :       iteration =    10

     FIRE Parameters: P = 0.00000001, dt = 12.10, alpha = 0.200 nsteppos =   1 at step 10


ATOMIC_POSITIONS (angstrom)
N             0.0000003361        0.0003738576        2.7047171843
H             0.8646145332        0.4994526895        2.6062426547
H            -0.8646140647        0.4994532985        2.6062467537
H            -0.0000008046       -0.9978338656        2.6046791096



     Writing config-only to output data dir ./pwscf.save/
     NEW-OLD atomic charge density approx. for the potential

     Check: negative core charge=   -0.000004

     negative rho (up, down):  2.199E-03 0.000E+00

     total cpu time spent up to now is        1.5 secs

     Self-consistent Calculation

     iteration #  1     ecut=    40.00 Ry     beta= 0.70
     Davidson diagonalization with overlap
     ethr =  1.00E-06,  avg # of iterations =  2.0

     Threshold (ethr) on eigenvalues was too large:
     Diagonalizing with lowered threshold

     Davidson diagonalization with overlap
     ethr =  8.93E-09,  avg # of iterations =  1.0

     negative rho (up, down):  2.196E-03 0.000E+00

     total cpu time spent up to now is        1.5 secs

     End of self-consistent calculation

          k = 0.0000 0.0000 0.0000 (  3625 PWs)   bands (ev):

   -20.1871 -11.1705 -11.1670  -4.8215  -1.0307   2.0468   2.3599   2.7103

     the Fermi energy is    -2.9261 ev

!    total energy              =     -31.77669487 Ry
     estimated scf accuracy    <       0.00000079 Ry
     smearing contrib. (-TS)   =      -0.00002399 Ry
     internal energy E=F+TS    =     -31.77667088 Ry

     convergence has been achieved in   1 iterations

     negative rho (up, down):  2.196E-03 0.000E+00
  * IN ARTn_QE::           4
 Elements:H  N  

     Forces acting on atoms (cartesian axes, Ry/au):

     atom    1 type  2   force =     0.00249903   -0.00493850    0.00333462
     atom    2 type  1   force =    -0.00486911   -0.00382521    0.00040315
     atom    3 type  1   force =    -0.00185394   -0.00149218    0.00505401
     atom    4 type  1   force =    -0.00338706   -0.00181028    0.00189448

     Total force =     0.011393     Total SCF correction =     0.000414

     Entering FIRE :       iteration =    11

     FIRE Parameters: P = 0.00000000, dt = 20.00, alpha = 0.000 nsteppos =   1 at step 11


ATOMIC_POSITIONS (angstrom)
N             0.0005807034       -0.0007730441        2.7054916057
H             0.8634837466        0.4985643345        2.6063362818
H            -0.8650446170        0.4991067602        2.6074204800
H            -0.0007874051       -0.9982542787        2.6051190765



     Writing config-only to output data dir ./pwscf.save/
     NEW-OLD atomic charge density approx. for the potential

     Check: negative core charge=   -0.000004

     negative rho (up, down):  2.195E-03 0.000E+00

     total cpu time spent up to now is        1.6 secs

     Self-consistent Calculation

     iteration #  1     ecut=    40.00 Ry     beta= 0.70
     Davidson diagonalization with overlap
     ethr =  1.00E-06,  avg # of iterations =  2.0

     Threshold (ethr) on eigenvalues was too large:
     Diagonalizing with lowered threshold

     Davidson diagonalization with overlap
     ethr =  2.65E-08,  avg # of iterations =  2.0

     negative rho (up, down):  2.193E-03 0.000E+00

     total cpu time spent up to now is        1.6 secs

     total energy              =     -31.77669086 Ry
     estimated scf accuracy    <       0.00000249 Ry

     iteration #  2     ecut=    40.00 Ry     beta= 0.70
     Davidson diagonalization with overlap
     ethr =  3.11E-08,  avg # of iterations =  2.0

     negative rho (up, down):  2.193E-03 0.000E+00

     total cpu time spent up to now is        1.6 secs

     End of self-consistent calculation

          k = 0.0000 0.0000 0.0000 (  3625 PWs)   bands (ev):

   -20.1887 -11.1792 -11.1592  -4.8220  -1.0309   2.0472   2.3601   2.7101

     the Fermi energy is    -2.9264 ev

!    total energy              =     -31.77669125 Ry
     estimated scf accuracy    <       0.00000013 Ry
     smearing contrib. (-TS)   =      -0.00002396 Ry
     internal energy E=F+TS    =     -31.77666729 Ry

     convergence has been achieved in   2 iterations

     negative rho (up, down):  2.193E-03 0.000E+00
  * IN ARTn_QE::           4
 Elements:H  N  

     Forces acting on atoms (cartesian axes, Ry/au):

     atom    1 type  2   force =     0.00585586    0.00433991   -0.00531093
     atom    2 type  1   force =     0.00253073    0.00374102   -0.00008806
     atom    3 type  1   force =    -0.00132505    0.00481133   -0.00845518
     atom    4 type  1   force =     0.00467713    0.00571755   -0.00262739

     Total force =     0.016112     Total SCF correction =     0.000449

     Entering FIRE :       iteration =    12

     FIRE Parameters: P = 0.00000000, dt = 20.00, alpha = 0.000 nsteppos =   1 at step 12


ATOMIC_POSITIONS (angstrom)
N             0.0019406495        0.0002348435        2.7042582120
H             0.8640714754        0.4994331376        2.6063158304
H            -0.8653523432        0.5002241281        2.6054568772
H             0.0002987969       -0.9969264534        2.6045089002



     Writing config-only to output data dir ./pwscf.save/
     NEW-OLD atomic charge density approx. for the potential

     Check: negative core charge=   -0.000004

     negative rho (up, down):  2.196E-03 0.000E+00

     total cpu time spent up to now is        1.7 secs

     Self-consistent Calculation

     iteration #  1     ecut=    40.00 Ry     beta= 0.70
     Davidson diagonalization with overlap
     ethr =  1.00E-06,  avg # of iterations =  3.0

     Threshold (ethr) on eigenvalues was too large:
     Diagonalizing with lowered threshold

     Davidson diagonalization with overlap
     ethr =  5.69E-08,  avg # of iterations =  1.0

     negative rho (up, down):  2.196E-03 0.000E+00

     total cpu time spent up to now is        1.7 secs

     total energy              =     -31.77666020 Ry
     estimated scf accuracy    <       0.00000485 Ry

     iteration #  2     ecut=    40.00 Ry     beta= 0.70
     Davidson diagonalization with overlap
     ethr =  6.07E-08,  avg # of iterations =  2.0

     negative rho (up, down):  2.199E-03 0.000E+00

     total cpu time spent up to now is        1.7 secs

     End of self-consistent calculation

          k = 0.0000 0.0000 0.0000 (  3625 PWs)   bands (ev):

   -20.1888 -11.1869 -11.1526  -4.8231  -1.0316   2.0467   2.3591   2.7092

     the Fermi energy is    -2.9273 ev

!    total energy              =     -31.77666097 Ry
     estimated scf accuracy    <       0.00000042 Ry
     smearing contrib. (-TS)   =      -0.00002392 Ry
     internal energy E=F+TS    =     -31.77663705 Ry

     convergence has been achieved in   2 iterations

     negative rho (up, down):  2.199E-03 0.000E+00
  * IN ARTn_QE::           4
 Elements:H  N  

     Forces acting on atoms (cartesian axes, Ry/au):

     atom    1 type  2   force =    -0.00765978    0.00132552    0.00372134
     atom    2 type  1   force =     0.00775366    0.00004448   -0.00055093
     atom    3 type  1   force =    -0.00474662   -0.00099903    0.00405808
     atom    4 type  1   force =    -0.00088798   -0.00915492    0.00055092

     Total force =     0.016112     Total SCF correction =     0.000760

     Entering FIRE :       iteration =    13

     FIRE Parameters: P = 0.00000000, dt = 20.00, alpha = 0.000 nsteppos =   1 at step 13


ATOMIC_POSITIONS (angstrom)
N             0.0001617674        0.0005426769        2.7051224439
H             0.8658721600        0.4994434675        2.6061878832
H            -0.8664546840        0.4999921174        2.6063993120
H             0.0000925749       -0.9990525624        2.6046368434



     Writing config-only to output data dir ./pwscf.save/
     NEW-OLD atomic charge density approx. for the potential

     Check: negative core charge=   -0.000004

     negative rho (up, down):  2.183E-03 0.000E+00

     total cpu time spent up to now is        1.8 secs

     Self-consistent Calculation

     iteration #  1     ecut=    40.00 Ry     beta= 0.70
     Davidson diagonalization with overlap
     ethr =  1.00E-06,  avg # of iterations =  3.0

     negative rho (up, down):  2.179E-03 0.000E+00

     total cpu time spent up to now is        1.8 secs

     total energy              =     -31.77672355 Ry
     estimated scf accuracy    <       0.00001948 Ry

     iteration #  2     ecut=    40.00 Ry     beta= 0.70
     Davidson diagonalization with overlap
     ethr =  2.44E-07,  avg # of iterations =  2.0

     negative rho (up, down):  2.184E-03 0.000E+00

     total cpu time spent up to now is        1.8 secs

     total energy              =     -31.77672805 Ry
     estimated scf accuracy    <       0.00001072 Ry

     iteration #  3     ecut=    40.00 Ry     beta= 0.70
     Davidson diagonalization with overlap
     ethr =  1.34E-07,  avg # of iterations =  2.0

     negative rho (up, down):  2.186E-03 0.000E+00

     total cpu time spent up to now is        1.8 secs

     End of self-consistent calculation

          k = 0.0000 0.0000 0.0000 (  3625 PWs)   bands (ev):

   -20.1695 -11.1596 -11.1486  -4.8171  -1.0344   2.0399   2.3552   2.7082

     the Fermi energy is    -2.9257 ev

!    total energy              =     -31.77673033 Ry
     estimated scf accuracy    <       0.00000013 Ry
     smearing contrib. (-TS)   =      -0.00002479 Ry
     internal energy E=F+TS    =     -31.77670554 Ry

     convergence has been achieved in   3 iterations

     negative rho (up, down):  2.186E-03 0.000E+00
  * IN ARTn_QE::           4
 Elements:H  N  

     Forces acting on atoms (cartesian axes, Ry/au):

     atom    1 type  2   force =     0.00223511    0.00055319   -0.00052781
     atom    2 type  1   force =    -0.00865124    0.00546214   -0.00013787
     atom    3 type  1   force =     0.01154556    0.00000852   -0.00232836
     atom    4 type  1   force =    -0.00254628   -0.00192866   -0.00063282

     Total force =     0.016112     Total SCF correction =     0.000258

     Entering FIRE :       iteration =    14

     FIRE Parameters: P = 0.00000000, dt = 20.00, alpha = 0.000 nsteppos =   1 at step 14


ATOMIC_POSITIONS (angstrom)
N             0.0006808424        0.0006711486        2.7049998675
H             0.8638630240        0.5007119766        2.6061558647
H            -0.8637733793        0.4999940968        2.6058585809
H            -0.0004987645       -0.9995004684        2.6044898798



     Writing config-only to output data dir ./pwscf.save/
     NEW-OLD atomic charge density approx. for the potential

     Check: negative core charge=   -0.000004

     negative rho (up, down):  2.194E-03 0.000E+00

     total cpu time spent up to now is        1.9 secs

     Self-consistent Calculation

     iteration #  1     ecut=    40.00 Ry     beta= 0.70
     Davidson diagonalization with overlap
     ethr =  1.00E-06,  avg # of iterations =  2.0

     Threshold (ethr) on eigenvalues was too large:
     Diagonalizing with lowered threshold

     Davidson diagonalization with overlap
     ethr =  8.56E-08,  avg # of iterations =  2.0

     negative rho (up, down):  2.196E-03 0.000E+00

     total cpu time spent up to now is        1.9 secs

     total energy              =     -31.77671297 Ry
     estimated scf accuracy    <       0.00000786 Ry

     iteration #  2     ecut=    40.00 Ry     beta= 0.70
     Davidson diagonalization with overlap
     ethr =  9.82E-08,  avg # of iterations =  2.0

     negative rho (up, down):  2.192E-03 0.000E+00

     total cpu time spent up to now is        1.9 secs

     total energy              =     -31.77671468 Ry
     estimated scf accuracy    <       0.00000453 Ry

     iteration #  3     ecut=    40.00 Ry     beta= 0.70
     Davidson diagonalization with overlap
     ethr =  5.66E-08,  avg # of iterations =  2.0

     negative rho (up, down):  2.192E-03 0.000E+00

     total cpu time spent up to now is        1.9 secs

     End of self-consistent calculation

          k = 0.0000 0.0000 0.0000 (  3625 PWs)   bands (ev):

   -20.1819 -11.1707 -11.1566  -4.8209  -1.0321   2.0441   2.3578   2.7102

     the Fermi energy is    -2.9265 ev

!    total energy              =     -31.77671565 Ry
     estimated scf accuracy    <       0.00000007 Ry
     smearing contrib. (-TS)   =      -0.00002418 Ry
     internal energy E=F+TS    =     -31.77669147 Ry

     convergence has been achieved in   3 iterations

     negative rho (up, down):  2.192E-03 0.000E+00
  * IN ARTn_QE::           4
 Elements:H  N  

     Forces acting on atoms (cartesian axes, Ry/au):

     atom    1 type  2   force =    -0.00129887    0.00759619   -0.00237522
     atom    2 type  1   force =     0.00054832   -0.01063781    0.00123239
     atom    3 type  1   force =    -0.00390069   -0.00465330    0.00275749
     atom    4 type  1   force =     0.00299228    0.00506491    0.00071457

     Total force =     0.016112     Total SCF correction =     0.000185

     Entering FIRE :       iteration =    15

     FIRE Parameters: P = 0.00000000, dt = 20.00, alpha = 0.000 nsteppos =   1 at step 15


ATOMIC_POSITIONS (angstrom)
N             0.0003791959        0.0024352634        2.7044482543
H             0.8639903652        0.4982414865        2.6064420716
H            -0.8646792620        0.4989134284        2.6064989714
H             0.0001961542       -0.9983242088        2.6046558293



     Writing config-only to output data dir ./pwscf.save/
     NEW-OLD atomic charge density approx. for the potential

     Check: negative core charge=   -0.000004

     negative rho (up, down):  2.202E-03 0.000E+00

     total cpu time spent up to now is        2.0 secs

     Self-consistent Calculation

     iteration #  1     ecut=    40.00 Ry     beta= 0.70
     Davidson diagonalization with overlap
     ethr =  1.00E-06,  avg # of iterations =  2.0

     Threshold (ethr) on eigenvalues was too large:
     Diagonalizing with lowered threshold

     Davidson diagonalization with overlap
     ethr =  4.48E-08,  avg # of iterations =  2.0

     negative rho (up, down):  2.202E-03 0.000E+00

     total cpu time spent up to now is        2.0 secs

     total energy              =     -31.77664399 Ry
     estimated scf accuracy    <       0.00000416 Ry

     iteration #  2     ecut=    40.00 Ry     beta= 0.70
     Davidson diagonalization with overlap
     ethr =  5.20E-08,  avg # of iterations =  2.0

     negative rho (up, down):  2.199E-03 0.000E+00

     total cpu time spent up to now is        2.0 secs

     total energy              =     -31.77664472 Ry
     estimated scf accuracy    <       0.00000143 Ry

     iteration #  3     ecut=    40.00 Ry     beta= 0.70
     Davidson diagonalization with overlap
     ethr =  1.79E-08,  avg # of iterations =  2.0

     negative rho (up, down):  2.199E-03 0.000E+00

     total cpu time spent up to now is        2.0 secs

     End of self-consistent calculation

          k = 0.0000 0.0000 0.0000 (  3625 PWs)   bands (ev):

   -20.1895 -11.1939 -11.1472  -4.8219  -1.0308   2.0417   2.3607   2.7108

     the Fermi energy is    -2.9263 ev

!    total energy              =     -31.77664506 Ry
     estimated scf accuracy    <       0.00000011 Ry
     smearing contrib. (-TS)   =      -0.00002397 Ry
     internal energy E=F+TS    =     -31.77662110 Ry

     convergence has been achieved in   3 iterations

     negative rho (up, down):  2.199E-03 0.000E+00
  * IN ARTn_QE::           4
 Elements:H  N  

     Forces acting on atoms (cartesian axes, Ry/au):

     atom    1 type  2   force =    -0.00177439   -0.00770115    0.01047022
     atom    2 type  1   force =     0.00223845    0.00390061   -0.00380837
     atom    3 type  1   force =     0.00052272    0.00146953   -0.00474134
     atom    4 type  1   force =     0.00008044    0.00402292   -0.00341893

     Total force =     0.016112     Total SCF correction =     0.000194

     Entering FIRE :       iteration =    16

     FIRE Parameters: P = 0.00000000, dt = 20.00, alpha = 0.000 nsteppos =   1 at step 16


ATOMIC_POSITIONS (angstrom)
N            -0.0000328838        0.0006467720        2.7068798238
H             0.8645102153        0.4991473513        2.6055576280
H            -0.8645578663        0.4992547080        2.6053978576
H             0.0002148360       -0.9973899378        2.6038618285



     Writing config-only to output data dir ./pwscf.save/
     NEW-OLD atomic charge density approx. for the potential

     Check: negative core charge=   -0.000004

     negative rho (up, down):  2.189E-03 0.000E+00

     total cpu time spent up to now is        2.1 secs

     Self-consistent Calculation

     iteration #  1     ecut=    40.00 Ry     beta= 0.70
     Davidson diagonalization with overlap
     ethr =  1.00E-06,  avg # of iterations =  3.0

     negative rho (up, down):  2.186E-03 0.000E+00

     total cpu time spent up to now is        2.1 secs

     total energy              =     -31.77681233 Ry
     estimated scf accuracy    <       0.00001194 Ry

     iteration #  2     ecut=    40.00 Ry     beta= 0.70
     Davidson diagonalization with overlap
     ethr =  1.49E-07,  avg # of iterations =  2.0

     negative rho (up, down):  2.188E-03 0.000E+00

     total cpu time spent up to now is        2.1 secs

     total energy              =     -31.77681452 Ry
     estimated scf accuracy    <       0.00000183 Ry

     iteration #  3     ecut=    40.00 Ry     beta= 0.70
     Davidson diagonalization with overlap
     ethr =  2.28E-08,  avg # of iterations =  2.0

     negative rho (up, down):  2.186E-03 0.000E+00

     total cpu time spent up to now is        2.1 secs

     End of self-consistent calculation

          k = 0.0000 0.0000 0.0000 (  3625 PWs)   bands (ev):

   -20.1848 -11.1669 -11.1586  -4.8211  -1.0311   2.0457   2.3612   2.7102

     the Fermi energy is    -2.9261 ev

!    total energy              =     -31.77681491 Ry
     estimated scf accuracy    <       0.00000035 Ry
     smearing contrib. (-TS)   =      -0.00002407 Ry
     internal energy E=F+TS    =     -31.77679084 Ry

     convergence has been achieved in   3 iterations

     negative rho (up, down):  2.186E-03 0.000E+00
  * IN ARTn_QE::           4
 Elements:H  N  

     Forces acting on atoms (cartesian axes, Ry/au):

     atom    1 type  2   force =    -0.00301473   -0.00332703   -0.00884556
     atom    2 type  1   force =    -0.00379020    0.00116752    0.00907246
     atom    3 type  1   force =    -0.00176815    0.00174363    0.00246676
     atom    4 type  1   force =     0.00580264   -0.00397623    0.00119616

     Total force =     0.016112     Total SCF correction =     0.000368

     Entering FIRE :       iteration =    17

     FIRE Parameters: P = 0.00000000, dt = 20.00, alpha = 0.000 nsteppos =   1 at step 17


ATOMIC_POSITIONS (angstrom)
N            -0.0007330160       -0.0001258859        2.7048255582
H             0.8636299918        0.4994184918        2.6076645872
H            -0.8649684960        0.4996596436        2.6059707296
H             0.0015624228       -0.9983133637        2.6041396205



     Writing config-only to output data dir ./pwscf.save/
     NEW-OLD atomic charge density approx. for the potential

     Check: negative core charge=   -0.000004

     negative rho (up, down):  2.190E-03 0.000E+00

     total cpu time spent up to now is        2.2 secs

     Self-consistent Calculation

     iteration #  1     ecut=    40.00 Ry     beta= 0.70
     Davidson diagonalization with overlap
     ethr =  1.00E-06,  avg # of iterations =  2.0

     Threshold (ethr) on eigenvalues was too large:
     Diagonalizing with lowered threshold

     Davidson diagonalization with overlap
     ethr =  6.50E-08,  avg # of iterations =  2.0

     negative rho (up, down):  2.195E-03 0.000E+00

     total cpu time spent up to now is        2.2 secs

     total energy              =     -31.77668865 Ry
     estimated scf accuracy    <       0.00000579 Ry

     iteration #  2     ecut=    40.00 Ry     beta= 0.70
     Davidson diagonalization with overlap
     ethr =  7.23E-08,  avg # of iterations =  2.0

     negative rho (up, down):  2.193E-03 0.000E+00

     total cpu time spent up to now is        2.2 secs

     total energy              =     -31.77668971 Ry
     estimated scf accuracy    <       0.00000138 Ry

     iteration #  3     ecut=    40.00 Ry     beta= 0.70
     Davidson diagonalization with overlap
     ethr =  1.73E-08,  avg # of iterations =  2.0

     negative rho (up, down):  2.195E-03 0.000E+00

     total cpu time spent up to now is        2.3 secs

     End of self-consistent calculation

          k = 0.0000 0.0000 0.0000 (  3625 PWs)   bands (ev):

   -20.1868 -11.1741 -11.1623  -4.8222  -1.0316   2.0458   2.3589   2.7097

     the Fermi energy is    -2.9269 ev

!    total energy              =     -31.77669002 Ry
     estimated scf accuracy    <       0.00000017 Ry
     smearing contrib. (-TS)   =      -0.00002401 Ry
     internal energy E=F+TS    =     -31.77666601 Ry

     convergence has been achieved in   3 iterations

     negative rho (up, down):  2.195E-03 0.000E+00
  * IN ARTn_QE::           4
 Elements:H  N  

     Forces acting on atoms (cartesian axes, Ry/au):

     atom    1 type  2   force =     0.00315778    0.00215187   -0.00046665
     atom    2 type  1   force =     0.00423939    0.00014725   -0.00612277
     atom    3 type  1   force =     0.00152616   -0.00088851    0.00118855
     atom    4 type  1   force =    -0.00673118    0.00206469    0.00232301

     Total force =     0.011393     Total SCF correction =     0.000293

     Entering FIRE :       iteration =    18

     FIRE Parameters: P = 0.00000000, dt = 20.00, alpha = 0.000 nsteppos =   1 at step 18


ATOMIC_POSITIONS (angstrom)
N             0.0000003361        0.0003738576        2.7047171843
H             0.8646145332        0.4994526895        2.6062426547
H            -0.8646140647        0.4994532985        2.6062467537
H            -0.0000008046       -0.9978338656        2.6046791096



     Writing config-only to output data dir ./pwscf.save/
     NEW-OLD atomic charge density approx. for the potential

     Check: negative core charge=   -0.000004

     negative rho (up, down):  2.196E-03 0.000E+00

     total cpu time spent up to now is        2.3 secs

     Self-consistent Calculation

     iteration #  1     ecut=    40.00 Ry     beta= 0.70
     Davidson diagonalization with overlap
     ethr =  1.00E-06,  avg # of iterations =  2.0

     Threshold (ethr) on eigenvalues was too large:
     Diagonalizing with lowered threshold

     Davidson diagonalization with overlap
     ethr =  9.43E-09,  avg # of iterations =  2.0

     negative rho (up, down):  2.194E-03 0.000E+00

     total cpu time spent up to now is        2.3 secs

     total energy              =     -31.77669473 Ry
     estimated scf accuracy    <       0.00000108 Ry

     iteration #  2     ecut=    40.00 Ry     beta= 0.70
     Davidson diagonalization with overlap
     ethr =  1.35E-08,  avg # of iterations =  2.0

     negative rho (up, down):  2.196E-03 0.000E+00

     total cpu time spent up to now is        2.3 secs

     End of self-consistent calculation

          k = 0.0000 0.0000 0.0000 (  3625 PWs)   bands (ev):

   -20.1878 -11.1706 -11.1672  -4.8232  -1.0317   2.0451   2.3590   2.7095

     the Fermi energy is    -2.9275 ev

!    total energy              =     -31.77669479 Ry
     estimated scf accuracy    <       0.00000041 Ry
     smearing contrib. (-TS)   =      -0.00002392 Ry
     internal energy E=F+TS    =     -31.77667087 Ry

     convergence has been achieved in   2 iterations

     negative rho (up, down):  2.196E-03 0.000E+00
  * IN ARTn_QE::           4
 Elements:H  N  

     Forces acting on atoms (cartesian axes, Ry/au):

     atom    1 type  2   force =    -0.00781464   -0.01798038   -0.36868714
     atom    2 type  1   force =     0.02211859   -0.00635073    0.12775954
     atom    3 type  1   force =    -0.04353867    0.01029909    0.16673288
     atom    4 type  1   force =    -0.01949339   -0.06321876    0.14261093

     Total force =     0.455722     Total SCF correction =     0.000350

     Entering FIRE :       iteration =    19

     FIRE Parameters: P = 0.00000000, dt = 20.00, alpha = 0.000 nsteppos =   1 at step 19


ATOMIC_POSITIONS (angstrom)
N            -0.0018145109       -0.0038018472        2.6190944676
H             0.8697512842        0.4979778167        2.6359131197
H            -0.8747253458        0.5018451254        2.6449682623
H            -0.0045278880       -1.0125155864        2.6377986144



     Writing config-only to output data dir ./pwscf.save/
     NEW-OLD atomic charge density approx. for the potential

     Check: negative core charge=   -0.000004

     negative rho (up, down):  1.752E-03 0.000E+00

     total cpu time spent up to now is        2.4 secs

     Self-consistent Calculation

     iteration #  1     ecut=    40.00 Ry     beta= 0.70
     Davidson diagonalization with overlap
     ethr =  1.00E-06,  avg # of iterations =  7.0

     negative rho (up, down):  1.882E-03 0.000E+00

     total cpu time spent up to now is        2.4 secs

     total energy              =     -31.77316428 Ry
     estimated scf accuracy    <       0.00692776 Ry

     iteration #  2     ecut=    40.00 Ry     beta= 0.70
     Davidson diagonalization with overlap
     ethr =  8.66E-05,  avg # of iterations =  2.0

     negative rho (up, down):  2.001E-03 0.000E+00

     total cpu time spent up to now is        2.4 secs

     total energy              =     -31.77463772 Ry
     estimated scf accuracy    <       0.00023151 Ry

     iteration #  3     ecut=    40.00 Ry     beta= 0.70
     Davidson diagonalization with overlap
     ethr =  2.89E-06,  avg # of iterations =  2.0

     negative rho (up, down):  2.086E-03 0.000E+00

     total cpu time spent up to now is        2.5 secs

     total energy              =     -31.77467114 Ry
     estimated scf accuracy    <       0.00001239 Ry

     iteration #  4     ecut=    40.00 Ry     beta= 0.70
     Davidson diagonalization with overlap
     ethr =  1.55E-07,  avg # of iterations =  2.0

     negative rho (up, down):  2.086E-03 0.000E+00

     total cpu time spent up to now is        2.5 secs

     End of self-consistent calculation

          k = 0.0000 0.0000 0.0000 (  3625 PWs)   bands (ev):

   -20.0945 -11.1633 -11.1410  -4.7603  -1.0396   2.0232   2.3337   2.7087

     the Fermi energy is    -2.9000 ev

!    total energy              =     -31.77467166 Ry
     estimated scf accuracy    <       0.00000036 Ry
     smearing contrib. (-TS)   =      -0.00003188 Ry
     internal energy E=F+TS    =     -31.77463978 Ry

     convergence has been achieved in   4 iterations

     negative rho (up, down):  2.086E-03 0.000E+00
  * IN ARTn_QE::           4
 Elements:H  N  

     Forces acting on atoms (cartesian axes, Ry/au):

     atom    1 type  2   force =    -0.00534987   -0.00213186   -0.00184758
     atom    2 type  1   force =    -0.00216779   -0.00140791    0.00066817
     atom    3 type  1   force =     0.00751415   -0.00431603    0.00021840
     atom    4 type  1   force =     0.00035616    0.00841487    0.00046587

     Total force =     0.013784     Total SCF correction =     0.001708
     SCF correction compared to forces is large: reduce conv_thr to get better values

     Entering FIRE :       iteration =    20

     FIRE Parameters: P = 0.00000000, dt = 22.00, alpha = 0.198 nsteppos =   6 at step 20


ATOMIC_POSITIONS (angstrom)
N            -0.0033178601       -0.0044009148        2.6185752869
H             0.8691421223        0.4975821848        2.6361008802
H            -0.8726138213        0.5006322930        2.6450296346
H            -0.0044278053       -1.0101509529        2.6379295273



     Writing config-only to output data dir ./pwscf.save/
     NEW-OLD atomic charge density approx. for the potential

     Check: negative core charge=   -0.000004

     negative rho (up, down):  2.101E-03 0.000E+00

     total cpu time spent up to now is        2.5 secs

     Self-consistent Calculation

     iteration #  1     ecut=    40.00 Ry     beta= 0.70
     Davidson diagonalization with overlap
     ethr =  1.00E-06,  avg # of iterations =  3.0

     negative rho (up, down):  2.101E-03 0.000E+00

     total cpu time spent up to now is        2.5 secs

     total energy              =     -31.77473028 Ry
     estimated scf accuracy    <       0.00001791 Ry

     iteration #  2     ecut=    40.00 Ry     beta= 0.70
     Davidson diagonalization with overlap
     ethr =  2.24E-07,  avg # of iterations =  2.0

     negative rho (up, down):  2.096E-03 0.000E+00

     total cpu time spent up to now is        2.6 secs

     total energy              =     -31.77473416 Ry
     estimated scf accuracy    <       0.00000900 Ry

     iteration #  3     ecut=    40.00 Ry     beta= 0.70
     Davidson diagonalization with overlap
     ethr =  1.13E-07,  avg # of iterations =  2.0

     negative rho (up, down):  2.094E-03 0.000E+00

     total cpu time spent up to now is        2.6 secs

     End of self-consistent calculation

          k = 0.0000 0.0000 0.0000 (  3625 PWs)   bands (ev):

   -20.1151 -11.1734 -11.1631  -4.7656  -1.0358   2.0309   2.3397   2.7103

     the Fermi energy is    -2.9007 ev

!    total energy              =     -31.77473614 Ry
     estimated scf accuracy    <       0.00000018 Ry
     smearing contrib. (-TS)   =      -0.00003073 Ry
     internal energy E=F+TS    =     -31.77470541 Ry

     convergence has been achieved in   3 iterations

     negative rho (up, down):  2.094E-03 0.000E+00
  * IN ARTn_QE::           4
 Elements:H  N  

     Forces acting on atoms (cartesian axes, Ry/au):

     atom    1 type  2   force =    -0.00019537   -0.00044951   -0.00921718
     atom    2 type  1   force =     0.00055296   -0.00015877    0.00319399
     atom    3 type  1   force =    -0.00108847    0.00025748    0.00416832
     atom    4 type  1   force =    -0.00048733   -0.00158047    0.00356527

     Total force =     0.011393     Total SCF correction =     0.000286

     Entering FIRE :       iteration =    21

     FIRE Parameters: P = 0.00000000, dt = 20.00, alpha = 0.000 nsteppos =   1 at step 21


ATOMIC_POSITIONS (angstrom)
N            -0.0033632312       -0.0045053074        2.6164347190
H             0.8692705411        0.4975453129        2.6368426418
H            -0.8728666033        0.5006920886        2.6459976723
H            -0.0045409823       -1.0105179959        2.6387575149



     Writing config-only to output data dir ./pwscf.save/
     NEW-OLD atomic charge density approx. for the potential

     Check: negative core charge=   -0.000004

     negative rho (up, down):  2.089E-03 0.000E+00

     total cpu time spent up to now is        2.6 secs

     Self-consistent Calculation

     iteration #  1     ecut=    40.00 Ry     beta= 0.70
     Davidson diagonalization with overlap
     ethr =  1.00E-06,  avg # of iterations =  2.0

     Threshold (ethr) on eigenvalues was too large:
     Diagonalizing with lowered threshold

     Davidson diagonalization with overlap
     ethr =  6.07E-08,  avg # of iterations =  1.0

     negative rho (up, down):  2.086E-03 0.000E+00

     total cpu time spent up to now is        2.7 secs

     total energy              =     -31.77475959 Ry
     estimated scf accuracy    <       0.00000550 Ry

     iteration #  2     ecut=    40.00 Ry     beta= 0.70
     Davidson diagonalization with overlap
     ethr =  6.87E-08,  avg # of iterations =  2.0

     negative rho (up, down):  2.088E-03 0.000E+00

     total cpu time spent up to now is        2.7 secs

     total energy              =     -31.77476062 Ry
     estimated scf accuracy    <       0.00000114 Ry

     iteration #  3     ecut=    40.00 Ry     beta= 0.70
     Davidson diagonalization with overlap
     ethr =  1.43E-08,  avg # of iterations =  2.0

     negative rho (up, down):  2.087E-03 0.000E+00

     total cpu time spent up to now is        2.7 secs

     End of self-consistent calculation

          k = 0.0000 0.0000 0.0000 (  3625 PWs)   bands (ev):

   -20.1094 -11.1676 -11.1580  -4.7628  -1.0365   2.0295   2.3392   2.7101

     the Fermi energy is    -2.8997 ev

!    total energy              =     -31.77476088 Ry
     estimated scf accuracy    <       0.00000016 Ry
     smearing contrib. (-TS)   =      -0.00003117 Ry
     internal energy E=F+TS    =     -31.77472971 Ry

     convergence has been achieved in   3 iterations

     negative rho (up, down):  2.087E-03 0.000E+00
  * IN ARTn_QE::           4
 Elements:H  N  

     Forces acting on atoms (cartesian axes, Ry/au):

     atom    1 type  2   force =     0.00299578    0.00109272    0.01113718
     atom    2 type  1   force =     0.00282721    0.00191517   -0.00374190
     atom    3 type  1   force =    -0.00534368    0.00309100   -0.00401195
     atom    4 type  1   force =    -0.00009438   -0.00548864   -0.00392378

     Total force =     0.016112     Total SCF correction =     0.000272

     Entering FIRE :       iteration =    22

     FIRE Parameters: P = 0.00000000, dt = 20.00, alpha = 0.000 nsteppos =   1 at step 22


ATOMIC_POSITIONS (angstrom)
N            -0.0026675019       -0.0042515385        2.6190211811
H             0.8699271229        0.4979900856        2.6359736357
H            -0.8741076025        0.5014099326        2.6450659494
H            -0.0045628999       -1.0117926608        2.6378462685



     Writing config-only to output data dir ./pwscf.save/
     NEW-OLD atomic charge density approx. for the potential

     Check: negative core charge=   -0.000004

     negative rho (up, down):  2.079E-03 0.000E+00

     total cpu time spent up to now is        2.7 secs

     Self-consistent Calculation

     iteration #  1     ecut=    40.00 Ry     beta= 0.70
     Davidson diagonalization with overlap
     ethr =  1.00E-06,  avg # of iterations =  3.0

     negative rho (up, down):  2.083E-03 0.000E+00

     total cpu time spent up to now is        2.8 secs

     total energy              =     -31.77469639 Ry
     estimated scf accuracy    <       0.00000848 Ry

     iteration #  2     ecut=    40.00 Ry     beta= 0.70
     Davidson diagonalization with overlap
     ethr =  1.06E-07,  avg # of iterations =  2.0

     negative rho (up, down):  2.087E-03 0.000E+00

     total cpu time spent up to now is        2.8 secs

     total energy              =     -31.77469798 Ry
     estimated scf accuracy    <       0.00000104 Ry

     iteration #  3     ecut=    40.00 Ry     beta= 0.70
     Davidson diagonalization with overlap
     ethr =  1.30E-08,  avg # of iterations =  2.0

     negative rho (up, down):  2.087E-03 0.000E+00

     total cpu time spent up to now is        2.8 secs

     End of self-consistent calculation

          k = 0.0000 0.0000 0.0000 (  3625 PWs)   bands (ev):

   -20.0974 -11.1569 -11.1517  -4.7598  -1.0389   2.0253   2.3349   2.7088

     the Fermi energy is    -2.8994 ev

!    total energy              =     -31.77469820 Ry
     estimated scf accuracy    <       0.00000023 Ry
     smearing contrib. (-TS)   =      -0.00003186 Ry
     internal energy E=F+TS    =     -31.77466634 Ry

     convergence has been achieved in   3 iterations

     negative rho (up, down):  2.087E-03 0.000E+00
  * IN ARTn_QE::           4
 Elements:H  N  

     Forces acting on atoms (cartesian axes, Ry/au):

     atom    1 type  2   force =     0.00552513    0.00302526   -0.00331155
     atom    2 type  1   force =    -0.00912843   -0.00432273    0.00056839
     atom    3 type  1   force =     0.00533484   -0.00245147   -0.00141726
     atom    4 type  1   force =     0.00113694    0.00829646    0.00013296

     Total force =     0.016112     Total SCF correction =     0.000276

     Entering FIRE :       iteration =    23

     FIRE Parameters: P = 0.00000000, dt = 20.00, alpha = 0.000 nsteppos =   1 at step 23


ATOMIC_POSITIONS (angstrom)
N            -0.0013843634       -0.0035489619        2.6182521167
H             0.8678071664        0.4969861886        2.6361056358
H            -0.8728686565        0.5008406117        2.6447368105
H            -0.0042988611       -1.0098659167        2.6378771471



     Writing config-only to output data dir ./pwscf.save/
     NEW-OLD atomic charge density approx. for the potential

     Check: negative core charge=   -0.000004

     negative rho (up, down):  2.103E-03 0.000E+00

     total cpu time spent up to now is        2.9 secs

     Self-consistent Calculation

     iteration #  1     ecut=    40.00 Ry     beta= 0.70
     Davidson diagonalization with overlap
     ethr =  1.00E-06,  avg # of iterations =  3.0

     negative rho (up, down):  2.104E-03 0.000E+00

     total cpu time spent up to now is        2.9 secs

     total energy              =     -31.77472091 Ry
     estimated scf accuracy    <       0.00002313 Ry

     iteration #  2     ecut=    40.00 Ry     beta= 0.70
     Davidson diagonalization with overlap
     ethr =  2.89E-07,  avg # of iterations =  2.0

     negative rho (up, down):  2.098E-03 0.000E+00

     total cpu time spent up to now is        2.9 secs

     total energy              =     -31.77472651 Ry
     estimated scf accuracy    <       0.00001521 Ry

     iteration #  3     ecut=    40.00 Ry     beta= 0.70
     Davidson diagonalization with overlap
     ethr =  1.90E-07,  avg # of iterations =  2.0

     negative rho (up, down):  2.096E-03 0.000E+00

     total cpu time spent up to now is        2.9 secs

     End of self-consistent calculation

          k = 0.0000 0.0000 0.0000 (  3625 PWs)   bands (ev):

   -20.1195 -11.1856 -11.1576  -4.7660  -1.0347   2.0309   2.3414   2.7113

     the Fermi energy is    -2.9004 ev

!    total energy              =     -31.77472963 Ry
     estimated scf accuracy    <       0.00000010 Ry
     smearing contrib. (-TS)   =      -0.00003056 Ry
     internal energy E=F+TS    =     -31.77469907 Ry

     convergence has been achieved in   3 iterations

     negative rho (up, down):  2.096E-03 0.000E+00
  * IN ARTn_QE::           4
 Elements:H  N  

     Forces acting on atoms (cartesian axes, Ry/au):

     atom    1 type  2   force =    -0.00870771   -0.00653346    0.00538757
     atom    2 type  1   force =     0.00198900   -0.00243703   -0.00002894
     atom    3 type  1   force =     0.00072680   -0.00330687    0.00724319
     atom    4 type  1   force =    -0.00430092   -0.00404030    0.00184974

     Total force =     0.016112     Total SCF correction =     0.000258

     Entering FIRE :       iteration =    24

     FIRE Parameters: P = 0.00000000, dt = 20.00, alpha = 0.000 nsteppos =   1 at step 24


ATOMIC_POSITIONS (angstrom)
N            -0.0034066149       -0.0050662727        2.6195033076
H             0.8682690852        0.4964202197        2.6360989143
H            -0.8726998663        0.5000726337        2.6464189449
H            -0.0052976937       -1.0108042232        2.6383067250



     Writing config-only to output data dir ./pwscf.save/
     NEW-OLD atomic charge density approx. for the potential

     Check: negative core charge=   -0.000004

     negative rho (up, down):  2.094E-03 0.000E+00

     total cpu time spent up to now is        3.0 secs

     Self-consistent Calculation

     iteration #  1     ecut=    40.00 Ry     beta= 0.70
     Davidson diagonalization with overlap
     ethr =  1.00E-06,  avg # of iterations =  3.0

     negative rho (up, down):  2.096E-03 0.000E+00

     total cpu time spent up to now is        3.0 secs

     total energy              =     -31.77473701 Ry
     estimated scf accuracy    <       0.00000806 Ry

     iteration #  2     ecut=    40.00 Ry     beta= 0.70
     Davidson diagonalization with overlap
[...]
     atom    4 type  1   force =     0.00017881    0.00305182    0.00066334

     Total force =     0.005921     Total SCF correction =     0.000188

     Entering FIRE :       iteration =    69

     FIRE Parameters: P = 0.00000005, dt =  2.75, alpha = 0.198 nsteppos =   6 at step 69


ATOMIC_POSITIONS (angstrom)
N            -0.0015060105       -0.0051176595        2.9290912356
H             0.8171528430        0.4679339595        2.5346374839
H            -0.8215984740        0.4704117086        2.5411486274
H            -0.0053164431       -0.9496458078        2.5328291955



     Writing config-only to output data dir ./pwscf.save/
     NEW-OLD atomic charge density approx. for the potential

     Check: negative core charge=   -0.000004

     negative rho (up, down):  2.346E-03 0.000E+00

     total cpu time spent up to now is        7.9 secs

     Self-consistent Calculation

     iteration #  1     ecut=    40.00 Ry     beta= 0.70
     Davidson diagonalization with overlap
     ethr =  1.00E-06,  avg # of iterations =  2.0

     Threshold (ethr) on eigenvalues was too large:
     Diagonalizing with lowered threshold

     Davidson diagonalization with overlap
     ethr =  1.32E-09,  avg # of iterations =  1.0

     negative rho (up, down):  2.344E-03 0.000E+00

     total cpu time spent up to now is        7.9 secs

     End of self-consistent calculation

          k = 0.0000 0.0000 0.0000 (  3625 PWs)   bands (ev):

   -20.5298 -10.6153 -10.6112  -5.5840  -1.0656   2.0871   2.4950   2.6624

     the Fermi energy is    -3.3248 ev

!    total energy              =     -31.79111393 Ry
     estimated scf accuracy    <       0.00000012 Ry
     smearing contrib. (-TS)   =      -0.00000092 Ry
     internal energy E=F+TS    =     -31.79111301 Ry

     convergence has been achieved in   1 iterations

     negative rho (up, down):  2.344E-03 0.000E+00
  * IN ARTn_QE::           4
 Elements:H  N  

     Forces acting on atoms (cartesian axes, Ry/au):

     atom    1 type  2   force =     0.00007531    0.00008792   -0.00189962
     atom    2 type  1   force =    -0.00258109   -0.00159250    0.00067735
     atom    3 type  1   force =     0.00232933   -0.00126489    0.00062636
     atom    4 type  1   force =     0.00017645    0.00276947    0.00059592

     Total force =     0.005362     Total SCF correction =     0.000358

     Entering FIRE :       iteration =    70

     FIRE Parameters: P = 0.00000006, dt =  3.03, alpha = 0.196 nsteppos =   7 at step 70


ATOMIC_POSITIONS (angstrom)
N            -0.0015019157       -0.0051136008        2.9290074363
H             0.8170428740        0.4678664516        2.5346675291
H            -0.8214995212        0.4703576554        2.5411760377
H            -0.0053095218       -0.9495283055        2.5328555394



     Writing config-only to output data dir ./pwscf.save/
     NEW-OLD atomic charge density approx. for the potential

     Check: negative core charge=   -0.000004

     negative rho (up, down):  2.346E-03 0.000E+00

     total cpu time spent up to now is        8.0 secs

     Self-consistent Calculation

     iteration #  1     ecut=    40.00 Ry     beta= 0.70
     Davidson diagonalization with overlap
     ethr =  1.00E-06,  avg # of iterations =  2.0

     Threshold (ethr) on eigenvalues was too large:
     Diagonalizing with lowered threshold

     Davidson diagonalization with overlap
     ethr =  1.01E-08,  avg # of iterations =  1.0

     negative rho (up, down):  2.347E-03 0.000E+00

     total cpu time spent up to now is        8.0 secs

     End of self-consistent calculation

          k = 0.0000 0.0000 0.0000 (  3625 PWs)   bands (ev):

   -20.5365 -10.6208 -10.6166  -5.5891  -1.0658   2.0870   2.4949   2.6619

     the Fermi energy is    -3.3275 ev

!    total energy              =     -31.79111579 Ry
     estimated scf accuracy    <       0.00000086 Ry
     smearing contrib. (-TS)   =      -0.00000089 Ry
     internal energy E=F+TS    =     -31.79111489 Ry

     convergence has been achieved in   1 iterations

     negative rho (up, down):  2.347E-03 0.000E+00
  * IN ARTn_QE::           4
 Elements:H  N  

     Forces acting on atoms (cartesian axes, Ry/au):

     atom    1 type  2   force =     0.00005060    0.00007588   -0.00170088
     atom    2 type  1   force =    -0.00255611   -0.00157567    0.00060284
     atom    3 type  1   force =     0.00233182   -0.00126709    0.00056484
     atom    4 type  1   force =     0.00017370    0.00276689    0.00053320

     Total force =     0.005255     Total SCF correction =     0.000514

     Entering FIRE :       iteration =    71

     FIRE Parameters: P = 0.00000006, dt =  3.33, alpha = 0.194 nsteppos =   8 at step 71


ATOMIC_POSITIONS (angstrom)
N            -0.0014974887       -0.0051088078        2.9289063640
H             0.8169051353        0.4677817938        2.5347036572
H            -0.8213750804        0.4702897843        2.5412092315
H            -0.0053006509       -0.9493805695        2.5328872896



     Writing config-only to output data dir ./pwscf.save/
     NEW-OLD atomic charge density approx. for the potential

     Check: negative core charge=   -0.000004

     negative rho (up, down):  2.349E-03 0.000E+00

     total cpu time spent up to now is        8.1 secs

     Self-consistent Calculation

     iteration #  1     ecut=    40.00 Ry     beta= 0.70
     Davidson diagonalization with overlap
     ethr =  1.00E-06,  avg # of iterations =  2.0

     Threshold (ethr) on eigenvalues was too large:
     Diagonalizing with lowered threshold

     Davidson diagonalization with overlap
     ethr =  2.00E-08,  avg # of iterations =  1.0

     negative rho (up, down):  2.346E-03 0.000E+00

     total cpu time spent up to now is        8.1 secs

     total energy              =     -31.79111796 Ry
     estimated scf accuracy    <       0.00000177 Ry

     iteration #  2     ecut=    40.00 Ry     beta= 0.70
     Davidson diagonalization with overlap
     ethr =  2.21E-08,  avg # of iterations =  2.0

     negative rho (up, down):  2.347E-03 0.000E+00

     total cpu time spent up to now is        8.1 secs

     total energy              =     -31.79111847 Ry
     estimated scf accuracy    <       0.00000168 Ry

     iteration #  3     ecut=    40.00 Ry     beta= 0.70
     Davidson diagonalization with overlap
     ethr =  2.10E-08,  avg # of iterations =  2.0

     negative rho (up, down):  2.347E-03 0.000E+00

     total cpu time spent up to now is        8.1 secs

     End of self-consistent calculation

          k = 0.0000 0.0000 0.0000 (  3625 PWs)   bands (ev):

   -20.5344 -10.6191 -10.6148  -5.5853  -1.0652   2.0879   2.4954   2.6628

     the Fermi energy is    -3.3253 ev

!    total energy              =     -31.79111877 Ry
     estimated scf accuracy    <          1.7E-09 Ry
     smearing contrib. (-TS)   =      -0.00000091 Ry
     internal energy E=F+TS    =     -31.79111786 Ry

     convergence has been achieved in   3 iterations

     negative rho (up, down):  2.347E-03 0.000E+00
  * IN ARTn_QE::           4
 Elements:H  N  

     Forces acting on atoms (cartesian axes, Ry/au):

     atom    1 type  2   force =     0.00001724    0.00005093   -0.00134062
     atom    2 type  1   force =    -0.00215178   -0.00133889    0.00047186
     atom    3 type  1   force =     0.00196446   -0.00105316    0.00045239
     atom    4 type  1   force =     0.00017007    0.00234112    0.00041638

     Total force =     0.004393     Total SCF correction =     0.000040

     Entering FIRE :       iteration =    72

     FIRE Parameters: P = 0.00000006, dt =  3.66, alpha = 0.192 nsteppos =   9 at step 72


ATOMIC_POSITIONS (angstrom)
N            -0.0014931833       -0.0051034518        2.9287876751
H             0.8167363945        0.4676777290        2.5347459242
H            -0.8212221907        0.4702067906        2.5412484717
H            -0.0052891051       -0.9491988670        2.5329244714



     Writing config-only to output data dir ./pwscf.save/
     NEW-OLD atomic charge density approx. for the potential

     Check: negative core charge=   -0.000004

     negative rho (up, down):  2.349E-03 0.000E+00

     total cpu time spent up to now is        8.2 secs

     Self-consistent Calculation

     iteration #  1     ecut=    40.00 Ry     beta= 0.70
     Davidson diagonalization with overlap
     ethr =  1.00E-06,  avg # of iterations =  2.0

     Threshold (ethr) on eigenvalues was too large:
     Diagonalizing with lowered threshold

     Davidson diagonalization with overlap
     ethr =  1.93E-09,  avg # of iterations =  1.0

     negative rho (up, down):  2.349E-03 0.000E+00

     total cpu time spent up to now is        8.2 secs

     End of self-consistent calculation

          k = 0.0000 0.0000 0.0000 (  3625 PWs)   bands (ev):

   -20.5386 -10.6225 -10.6181  -5.5863  -1.0649   2.0886   2.4958   2.6631

     the Fermi energy is    -3.3256 ev

!    total energy              =     -31.79112135 Ry
     estimated scf accuracy    <       0.00000017 Ry
     smearing contrib. (-TS)   =      -0.00000090 Ry
     internal energy E=F+TS    =     -31.79112045 Ry

     convergence has been achieved in   1 iterations

     negative rho (up, down):  2.349E-03 0.000E+00
  * IN ARTn_QE::           4
 Elements:H  N  

     Forces acting on atoms (cartesian axes, Ry/au):

     atom    1 type  2   force =    -0.00001455    0.00003715   -0.00104456
     atom    2 type  1   force =    -0.00189445   -0.00118789    0.00036197
     atom    3 type  1   force =     0.00174367   -0.00092711    0.00036069
     atom    4 type  1   force =     0.00016533    0.00207785    0.00032189

     Total force =     0.003834     Total SCF correction =     0.000449
     SCF correction compared to forces is large: reduce conv_thr to get better values

     Entering FIRE :       iteration =    73

     FIRE Parameters: P = 0.00000006, dt =  4.03, alpha = 0.190 nsteppos =  10 at step 73


ATOMIC_POSITIONS (angstrom)
N            -0.0014897618       -0.0050976247        2.9286522527
H             0.8165322246        0.4675512588        2.5347938655
H            -0.8210364272        0.4701065036        2.5412936806
H            -0.0052741202       -0.9489779369        2.5329667436



     Writing config-only to output data dir ./pwscf.save/
     NEW-OLD atomic charge density approx. for the potential

     Check: negative core charge=   -0.000004

     negative rho (up, down):  2.352E-03 0.000E+00

     total cpu time spent up to now is        8.2 secs

     Self-consistent Calculation

     iteration #  1     ecut=    40.00 Ry     beta= 0.70
     Davidson diagonalization with overlap
     ethr =  1.00E-06,  avg # of iterations =  2.0

     Threshold (ethr) on eigenvalues was too large:
     Diagonalizing with lowered threshold

     Davidson diagonalization with overlap
     ethr =  4.27E-10,  avg # of iterations =  1.0

     negative rho (up, down):  2.349E-03 0.000E+00

     total cpu time spent up to now is        8.3 secs

     End of self-consistent calculation

          k = 0.0000 0.0000 0.0000 (  3625 PWs)   bands (ev):

   -20.5391 -10.6228 -10.6183  -5.5841  -1.0642   2.0898   2.4965   2.6641

     the Fermi energy is    -3.3241 ev

!    total energy              =     -31.79112400 Ry
     estimated scf accuracy    <       0.00000004 Ry
     smearing contrib. (-TS)   =      -0.00000091 Ry
     internal energy E=F+TS    =     -31.79112309 Ry

     convergence has been achieved in   1 iterations

     negative rho (up, down):  2.349E-03 0.000E+00
  * IN ARTn_QE::           4
 Elements:H  N  

     Forces acting on atoms (cartesian axes, Ry/au):

     atom    1 type  2   force =    -0.00005320    0.00001194   -0.00057896
     atom    2 type  1   force =    -0.00143765   -0.00091960    0.00019364
     atom    3 type  1   force =     0.00133224   -0.00068976    0.00021434
     atom    4 type  1   force =     0.00015861    0.00159743    0.00017098

     Total force =     0.002862     Total SCF correction =     0.000367
     SCF correction compared to forces is large: reduce conv_thr to get better values

     Entering FIRE :       iteration =    74

     FIRE Parameters: P = 0.00000005, dt =  4.43, alpha = 0.188 nsteppos =  11 at step 74


ATOMIC_POSITIONS (angstrom)
N            -0.0014889259       -0.0050919238        2.9285071895
H             0.8162899632        0.4673999807        2.5348447477
H            -0.8208149969        0.4699881904        2.5413429865
H            -0.0052541250       -0.9487140464        2.5330116187



     Writing config-only to output data dir ./pwscf.save/
     NEW-OLD atomic charge density approx. for the potential

     Check: negative core charge=   -0.000004

     negative rho (up, down):  2.353E-03 0.000E+00

     total cpu time spent up to now is        8.3 secs

     Self-consistent Calculation

     iteration #  1     ecut=    40.00 Ry     beta= 0.70
     Davidson diagonalization with overlap
     ethr =  1.00E-06,  avg # of iterations =  2.0

     Threshold (ethr) on eigenvalues was too large:
     Diagonalizing with lowered threshold

     Davidson diagonalization with overlap
     ethr =  8.11E-09,  avg # of iterations =  1.0

     negative rho (up, down):  2.353E-03 0.000E+00

     total cpu time spent up to now is        8.4 secs

     End of self-consistent calculation

          k = 0.0000 0.0000 0.0000 (  3625 PWs)   bands (ev):

   -20.5463 -10.6285 -10.6239  -5.5878  -1.0640   2.0904   2.4969   2.6641

     the Fermi energy is    -3.3259 ev

!    total energy              =     -31.79112586 Ry
     estimated scf accuracy    <       0.00000071 Ry
     smearing contrib. (-TS)   =      -0.00000089 Ry
     internal energy E=F+TS    =     -31.79112497 Ry

     convergence has been achieved in   1 iterations

     negative rho (up, down):  2.353E-03 0.000E+00
  * IN ARTn_QE::           4
 Elements:H  N  

     Forces acting on atoms (cartesian axes, Ry/au):

     atom    1 type  2   force =    -0.00008638   -0.00000559   -0.00013165
     atom    2 type  1   force =    -0.00113902   -0.00074181    0.00003246
     atom    3 type  1   force =     0.00107572   -0.00054471    0.00007278
     atom    4 type  1   force =     0.00014968    0.00129211    0.00002641

     Total force =     0.002242     Total SCF correction =     0.000489
     SCF correction compared to forces is large: reduce conv_thr to get better values

     Entering FIRE :       iteration =    75

     FIRE Parameters: P = 0.00000004, dt =  4.87, alpha = 0.186 nsteppos =  12 at step 75


ATOMIC_POSITIONS (angstrom)
N            -0.0014932527       -0.0050871501        2.9283696311
H             0.8160062346        0.4672210135        2.5348921915
H            -0.8205536297        0.4698503044        2.5413913888
H            -0.0052274368       -0.9484019670        2.5330533310



     Writing config-only to output data dir ./pwscf.save/
     NEW-OLD atomic charge density approx. for the potential

     Check: negative core charge=   -0.000004

     negative rho (up, down):  2.357E-03 0.000E+00

     total cpu time spent up to now is        8.4 secs

     Self-consistent Calculation

     iteration #  1     ecut=    40.00 Ry     beta= 0.70
     Davidson diagonalization with overlap
     ethr =  1.00E-06,  avg # of iterations =  2.0

     Threshold (ethr) on eigenvalues was too large:
     Diagonalizing with lowered threshold

     Davidson diagonalization with overlap
     ethr =  7.35E-09,  avg # of iterations =  1.0

     negative rho (up, down):  2.352E-03 0.000E+00

     total cpu time spent up to now is        8.4 secs

     End of self-consistent calculation

          k = 0.0000 0.0000 0.0000 (  3625 PWs)   bands (ev):

   -20.5434 -10.6256 -10.6211  -5.5809  -1.0627   2.0923   2.4980   2.6659

     the Fermi energy is    -3.3218 ev

!    total energy              =     -31.79112735 Ry
     estimated scf accuracy    <       0.00000066 Ry
     smearing contrib. (-TS)   =      -0.00000092 Ry
     internal energy E=F+TS    =     -31.79112644 Ry

     convergence has been achieved in   1 iterations

     negative rho (up, down):  2.352E-03 0.000E+00
  * IN ARTn_QE::           4
 Elements:H  N  
     |> Configuration Files: * Start: initp.xsf | sad0001.xsf | min0001.xsf | min0002.xsf
     |> BLOCK FINALIZE..
     !> CLEANING ARTn | Fail: 0
 ARTn calculation converged, stopping
  * PLUGIN_EXT_FORCE::   1.000000000000000E-003   1.00000000000000     

     Forces acting on atoms (cartesian axes, Ry/au):

     atom    1 type  2   force =     0.00000000    0.00000000    0.00000000
     atom    2 type  1   force =     0.00000000    0.00000000    0.00000000
     atom    3 type  1   force =     0.00000000    0.00000000    0.00000000
     atom    4 type  1   force =     0.00000000    0.00000000    0.00000000

     Total force =     0.000000     Total SCF correction =     0.000910

     FIRE: convergence achieved in  75 steps

     End of FIRE minimization

     Final energy =     -31.7911273546 Ry

Begin final coordinates
     new unit-cell volume =   1728.00000 a.u.^3 (   256.06318 Ang^3 )
     density =      0.11044 g/cm^3

CELL_PARAMETERS (alat= 12.00000000)
   1.000000000   0.000000000   0.000000000
   0.000000000   1.000000000   0.000000000
   0.000000000   0.000000000   1.000000000

ATOMIC_POSITIONS (angstrom)
N             0.0000006633        0.0001566805        3.0222235108
H             0.8175233785        0.4722939697        2.6288644578
H            -0.8175232760        0.4722948789        2.6288679375
H            -0.0000007658       -0.9432995491        2.6275226740
End final coordinates



     Writing all to output data dir ./pwscf.save/
 
     init_run     :      0.03s CPU      0.04s WALL (       1 calls)
     electrons    :      3.74s CPU      4.14s WALL (      76 calls)
     update_pot   :      1.70s CPU      1.95s WALL (      75 calls)
     forces       :      0.74s CPU      0.79s WALL (      76 calls)

     Called by init_run:
     wfcinit      :      0.00s CPU      0.00s WALL (       1 calls)
     potinit      :      0.01s CPU      0.02s WALL (       1 calls)
     hinit0       :      0.01s CPU      0.01s WALL (       1 calls)

     Called by electrons:
     c_bands      :      0.61s CPU      0.65s WALL (     258 calls)
     sum_band     :      0.40s CPU      0.42s WALL (     258 calls)
     v_of_rho     :      0.81s CPU      0.85s WALL (     295 calls)
     newd         :      0.30s CPU      0.33s WALL (     295 calls)
     PAW_pot      :      2.89s CPU      3.37s WALL (     370 calls)
     mix_rho      :      0.05s CPU      0.05s WALL (     258 calls)

     Called by c_bands:
     init_us_2    :      0.03s CPU      0.03s WALL (     592 calls)
     init_us_2:cp :      0.03s CPU      0.03s WALL (     592 calls)
     regterg      :      0.56s CPU      0.60s WALL (     258 calls)

     Called by *egterg:
     rdiaghg      :      0.06s CPU      0.07s WALL (     767 calls)
     h_psi        :      0.45s CPU      0.48s WALL (     882 calls)
     s_psi        :      0.00s CPU      0.00s WALL (     882 calls)
     g_psi        :      0.00s CPU      0.00s WALL (     623 calls)

     Called by h_psi:
     h_psi:calbec :      0.01s CPU      0.01s WALL (     882 calls)
     vloc_psi     :      0.43s CPU      0.46s WALL (     882 calls)
     add_vuspsi   :      0.01s CPU      0.01s WALL (     882 calls)

     General routines
     calbec       :      0.02s CPU      0.03s WALL (    1519 calls)
     fft          :      0.77s CPU      0.91s WALL (    3453 calls)
     ffts         :      0.03s CPU      0.03s WALL (     258 calls)
     fftw         :      0.45s CPU      0.48s WALL (    6752 calls)
 
     Parallel routines
 
     PWSCF        :      7.50s CPU      8.47s WALL

 
   This run was terminated on:  14: 1:25  15Nov2022            

=------------------------------------------------------------------------------=
   JOB DONE.
=------------------------------------------------------------------------------=
