
     Program PWSCF v.7.0 starts on 20Jun2022 at 18:37:18 

     This program is part of the open-source Quantum ESPRESSO suite
     for quantum simulation of materials; please cite
         "P. Giannozzi et al., J. Phys.:Condens. Matter 21 395502 (2009);
         "P. Giannozzi et al., J. Phys.:Condens. Matter 29 465901 (2017);
         "P. Giannozzi et al., J. Chem. Phys. 152 154105 (2020);
          URL http://www.quantum-espresso.org", 
     in publications or presentations arising from this work. More details at
     http://www.quantum-espresso.org/quote

     Parallel version (MPI), running on     8 processors

     MPI processes distributed on     1 nodes
     R & G space division:  proc/nbgrp/npool/nimage =       8
     119222 MiB available memory on the printing compute node when the environment starts
 
     Waiting for input...
     Reading input from standard input
Warning: card  &CELL ignored
Warning: card  / ignored

     Current dimensions of program PWSCF are:
     Max number of different atomic species (ntypx) = 10
     Max number of k-points (npk) =  40000
     Max angular momentum in pseudopotentials (lmaxx) =  4

     Subspace diagonalization in iterative solution of the eigenvalue problem:
     a serial algorithm will be used

 
     Parallelization info
     --------------------
     sticks:   dense  smooth     PW     G-vecs:    dense   smooth      PW
     Min          60      60     14                  976      976     118
     Max          61      61     16                  977      977     119
     Sum         481     481    121                 7809     7809     949
 
     Using Slab Decomposition
 


     bravais-lattice index     =            0
     lattice parameter (alat)  =       7.6534  a.u.
     unit-cell volume          =    3134.0813 (a.u.)^3
     number of atoms/cell      =           31
     number of atomic types    =            1
     number of electrons       =        93.00
     number of Kohn-Sham states=           56
     kinetic-energy cutoff     =       7.0000  Ry
     charge density cutoff     =      28.0000  Ry
     scf convergence threshold =      1.0E-06
     mixing beta               =       0.5000
     number of iterations used =            8  local-TF  mixing
     energy convergence thresh.=      1.0E-04
     force convergence thresh. =      1.0E-03
     Exchange-correlation=  SLA  PZ   NOGX NOGC
                           (   1   1   0   0   0   0   0)
     nstep                     =          200


     celldm(1)=   7.653391  celldm(2)=   0.000000  celldm(3)=   0.000000
     celldm(4)=   0.000000  celldm(5)=   0.000000  celldm(6)=   0.000000

     crystal axes: (cart. coord. in units of alat)
               a(1) = (   1.912125   0.000000   0.000000 )  
               a(2) = (   0.000000   1.912125   0.000000 )  
               a(3) = (   0.000000   0.000000   1.912125 )  

     reciprocal axes: (cart. coord. in units 2 pi/alat)
               b(1) = (  0.522978  0.000000  0.000000 )  
               b(2) = (  0.000000  0.522978  0.000000 )  
               b(3) = (  0.000000  0.000000  0.522978 )  


     PseudoPot. # 1 for Al read from file:
     ./Al.pz-vbc.UPF
     MD5 check sum: 614279c88ff8d45c90147292d03ed420
     Pseudo is Norm-conserving, Zval =  3.0
     Generated by new atomic code, or converted to UPF format
     Using radial grid of  171 points,  2 beta functions with: 
                l(1) =   0
                l(2) =   1

     atomic species   valence    mass     pseudopotential
        Al             3.00     1.00000     Al( 1.00)

     No symmetry found



   Cartesian axes

     site n.     atom                  positions (alat units)
         1           Al  tau(   1) = (  -0.0044246   0.0000000  -0.0044246  )
         2           Al  tau(   2) = (   0.4780233   0.4824459  -0.0044239  )
         3           Al  tau(   3) = (  -0.0044239   0.4824459   0.4780233  )
         4           Al  tau(   4) = (   0.9604869   0.0000000  -0.0044246  )
         5           Al  tau(   5) = (  -0.4780233   0.0000000   0.4780233  )
         6           Al  tau(   6) = (  -0.4780233   0.4805991  -0.0025797  )
         7           Al  tau(   7) = (   0.9604862   0.4824477   0.4780251  )
         8           Al  tau(   8) = (  -0.0025786   0.9560623  -0.0025786  )
         9           Al  tau(   9) = (   0.4780251   0.9560623   0.4780251  )
        10           Al  tau(  10) = (   0.4780233  -0.4824459  -0.0044239  )
        11           Al  tau(  11) = (  -0.0044239  -0.4824459   0.4780233  )
        12           Al  tau(  12) = (   0.9586409   0.9560623  -0.0025786  )
        13           Al  tau(  13) = (  -0.4780251   0.9560623   0.4780251  )
        14           Al  tau(  14) = (  -0.4780233  -0.4805991  -0.0025797  )
        15           Al  tau(  15) = (   0.9604862  -0.4824477   0.4780251  )
        16           Al  tau(  16) = (  -0.0044246   0.0000000   0.9604869  )
        17           Al  tau(  17) = (   0.4780233   0.0000000  -0.4780233  )
        18           Al  tau(  18) = (   0.4780251   0.4824477   0.9604862  )
        19           Al  tau(  19) = (  -0.0025797   0.4805991  -0.4780233  )
        20           Al  tau(  20) = (   0.9604869   0.0000000   0.9604869  )
        21           Al  tau(  21) = (  -0.4780233   0.0000000  -0.4780233  )
        22           Al  tau(  22) = (  -0.4780251   0.4806009   0.9586420  )
        23           Al  tau(  23) = (   0.9586420   0.4806009  -0.4780251  )
        24           Al  tau(  24) = (  -0.0025786   0.9560623   0.9586409  )
        25           Al  tau(  25) = (   0.4780251   0.9560623  -0.4780251  )
        26           Al  tau(  26) = (   0.4780251  -0.4824477   0.9604862  )
        27           Al  tau(  27) = (  -0.0025797  -0.4805991  -0.4780233  )
        28           Al  tau(  28) = (   0.9586409   0.9560623   0.9586409  )
        29           Al  tau(  29) = (  -0.4780251   0.9560623  -0.4780251  )
        30           Al  tau(  30) = (  -0.4780251  -0.4806009   0.9586420  )
        31           Al  tau(  31) = (   0.9586420  -0.4806009  -0.4780251  )

     number of k points=     1  Marzari-Vanderbilt smearing, width (Ry)=  0.0500
                       cart. coord. in units 2pi/alat
        k(    1) = (   0.0000000   0.0000000   0.0000000), wk =   2.0000000

     Dense  grid:     7809 G-vectors     FFT dimensions: (  25,  25,  25)

     Estimated max dynamical RAM per process >       2.05 MB

     Estimated total dynamical RAM >      16.37 MB

     Initial potential from superposition of free atoms

     starting charge      92.9362, renormalised to      93.0000
     Starting wfcs are random

     total cpu time spent up to now is        0.1 secs

     Self-consistent Calculation

     iteration #  1     ecut=     7.00 Ry     beta= 0.50
     Davidson diagonalization with overlap
     ethr =  1.00E-02,  avg # of iterations = 11.0

     total cpu time spent up to now is        0.2 secs

     total energy              =    -127.15762801 Ry
     estimated scf accuracy    <       0.97627815 Ry

     iteration #  2     ecut=     7.00 Ry     beta= 0.50
     Davidson diagonalization with overlap
     ethr =  1.05E-03,  avg # of iterations =  4.0

     total cpu time spent up to now is        0.2 secs

     total energy              =    -127.16313096 Ry
     estimated scf accuracy    <       0.32125199 Ry

     iteration #  3     ecut=     7.00 Ry     beta= 0.50
     Davidson diagonalization with overlap
     ethr =  3.45E-04,  avg # of iterations =  3.0

     total cpu time spent up to now is        0.3 secs

     total energy              =    -127.20838917 Ry
     estimated scf accuracy    <       0.02663232 Ry

     iteration #  4     ecut=     7.00 Ry     beta= 0.50
     Davidson diagonalization with overlap
     ethr =  2.86E-05,  avg # of iterations =  9.0

     total cpu time spent up to now is        0.3 secs

     total energy              =    -127.20820279 Ry
     estimated scf accuracy    <       0.01119498 Ry

     iteration #  5     ecut=     7.00 Ry     beta= 0.50
     Davidson diagonalization with overlap
     ethr =  1.20E-05,  avg # of iterations =  3.0

     total cpu time spent up to now is        0.4 secs

     total energy              =    -127.20878092 Ry
     estimated scf accuracy    <       0.01685459 Ry

     iteration #  6     ecut=     7.00 Ry     beta= 0.50
     Davidson diagonalization with overlap
     ethr =  1.20E-05,  avg # of iterations =  2.0

     total cpu time spent up to now is        0.4 secs

     total energy              =    -127.21040169 Ry
     estimated scf accuracy    <       0.00011586 Ry

     iteration #  7     ecut=     7.00 Ry     beta= 0.50
     Davidson diagonalization with overlap
     ethr =  1.25E-07,  avg # of iterations =  5.0

     total cpu time spent up to now is        0.5 secs

     total energy              =    -127.21044800 Ry
     estimated scf accuracy    <       0.00052821 Ry

     iteration #  8     ecut=     7.00 Ry     beta= 0.50
     Davidson diagonalization with overlap
     ethr =  1.25E-07,  avg # of iterations =  3.0

     total cpu time spent up to now is        0.5 secs

     total energy              =    -127.21047166 Ry
     estimated scf accuracy    <       0.00004014 Ry

     iteration #  9     ecut=     7.00 Ry     beta= 0.50
     Davidson diagonalization with overlap
     ethr =  4.32E-08,  avg # of iterations =  3.0

     total cpu time spent up to now is        0.5 secs

     End of self-consistent calculation

          k = 0.0000 0.0000 0.0000 (   949 PWs)   bands (ev):

    -2.7933  -0.4699  -0.4699  -0.3967  -0.3967  -0.3967   0.0056   1.8587
     1.8587   1.8587   1.9041   1.9041   1.9094   1.9094   1.9094   2.1698
     2.1699   2.1699   2.8976   3.7945   4.0201   4.0201   4.0201   4.5566
     4.5566   4.5566   5.3469   5.8188   5.8188   5.8188   7.5583   7.5583
     7.8147   7.8147   7.8147   7.8171   7.8374   7.8374   7.8375   8.0033
     8.0033   8.0034   8.3151   8.3151   8.3151   8.7156   8.9387   8.9387
     8.9387   9.0684   9.0684  10.0203  10.0204  10.0458  10.0458  10.0458

     the Fermi energy is     8.7052 ev

!    total energy              =    -127.21047597 Ry
     estimated scf accuracy    <       0.00000043 Ry
     smearing contrib. (-TS)   =       0.08481384 Ry
     internal energy E=F+TS    =    -127.29528981 Ry

     convergence has been achieved in   9 iterations
  * IN ARTn_QE::          31
 Elements:Al 
     |> Initialize_ARTn()
     |> NPERP_LIMITATION:: Actual nperp 4
     |> NPERP_LIMITATION::List: 4 8 12 16 -1
  * ARTn::UNITS::E2au::      1.0000     au2E      1.0000    
  * ARTn::UNITS::L2au::      1.0000     au2L      1.0000    
  * ARTn::UNITS::T2au::      1.0000     au2T      1.0000    
  * ARTn::UNITS::F2au::      1.0000     au2F      1.0000    
  * ARTn::UNITS::H2au::      1.0000     au2H      1.0000    
 DEBUG initial push  0.400000000000000     
 DEBUG initial push  0.400000000000000     

     Forces acting on atoms (cartesian axes, Ry/au):

     atom    1 type  1   force =     0.64448840    0.00000000    0.64448840
     atom    2 type  1   force =     0.00000000    0.00000000    0.00000000
     atom    3 type  1   force =     0.00000000    0.00000000    0.00000000
     atom    4 type  1   force =     0.00000000    0.00000000    0.00000000
     atom    5 type  1   force =     0.00000000    0.00000000    0.00000000
     atom    6 type  1   force =     0.00000000    0.00000000    0.00000000
     atom    7 type  1   force =     0.00000000    0.00000000    0.00000000
     atom    8 type  1   force =     0.00000000    0.00000000    0.00000000
     atom    9 type  1   force =     0.00000000    0.00000000    0.00000000
     atom   10 type  1   force =     0.00000000    0.00000000    0.00000000
     atom   11 type  1   force =     0.00000000    0.00000000    0.00000000
     atom   12 type  1   force =     0.00000000    0.00000000    0.00000000
     atom   13 type  1   force =     0.00000000    0.00000000    0.00000000
     atom   14 type  1   force =     0.00000000    0.00000000    0.00000000
     atom   15 type  1   force =     0.00000000    0.00000000    0.00000000
     atom   16 type  1   force =     0.00000000    0.00000000    0.00000000
     atom   17 type  1   force =     0.00000000    0.00000000    0.00000000
     atom   18 type  1   force =     0.00000000    0.00000000    0.00000000
     atom   19 type  1   force =     0.00000000    0.00000000    0.00000000
     atom   20 type  1   force =     0.00000000    0.00000000    0.00000000
     atom   21 type  1   force =     0.00000000    0.00000000    0.00000000
     atom   22 type  1   force =     0.00000000    0.00000000    0.00000000
     atom   23 type  1   force =     0.00000000    0.00000000    0.00000000
     atom   24 type  1   force =     0.00000000    0.00000000    0.00000000
     atom   25 type  1   force =     0.00000000    0.00000000    0.00000000
     atom   26 type  1   force =     0.00000000    0.00000000    0.00000000
     atom   27 type  1   force =     0.00000000    0.00000000    0.00000000
     atom   28 type  1   force =     0.00000000    0.00000000    0.00000000
     atom   29 type  1   force =     0.00000000    0.00000000    0.00000000
     atom   30 type  1   force =     0.00000000    0.00000000    0.00000000
     atom   31 type  1   force =     0.00000000    0.00000000    0.00000000

     Total force =     0.911444     Total SCF correction =     0.000738

     Entering FIRE :       iteration =     1

     FIRE Parameters: P = 0.00000000, dt = 20.00, alpha = 0.000 nsteppos =   1 at step  1


ATOMIC_POSITIONS (angstrom)
Al            0.1317544313        0.0000000000        0.1317544313
Al            1.9359944404        1.9539058065       -0.0179168077
Al           -0.0179168077        1.9539058065        1.9359944404
Al            3.8899718704        0.0000000000       -0.0179194864
Al           -1.9359944404        0.0000000000        1.9359944404
Al           -1.9359944404        1.9464262267       -0.0104478500
Al            3.8899691917        1.9539131229        1.9360017568
Al           -0.0104433294        3.8720523840       -0.0104433294
Al            1.9360017568        3.8720523840        1.9360017568
Al            1.9359944404       -1.9539058065       -0.0179168077
Al           -0.0179168077       -1.9539058065        1.9359944404
Al            3.8824957134        3.8720523840       -0.0104433294
Al           -1.9360017568        3.8720523840        1.9360017568
Al           -1.9359944404       -1.9464262267       -0.0104478500
Al            3.8899691917       -1.9539131229        1.9360017568
Al           -0.0179194864        0.0000000000        3.8899718704
Al            1.9359944404        0.0000000000       -1.9359944404
Al            1.9360017568        1.9539131229        3.8899691917
Al           -0.0104478500        1.9464262267       -1.9359944404
Al            3.8899718704        0.0000000000        3.8899718704
Al           -1.9359944404        0.0000000000       -1.9359944404
Al           -1.9360017568        1.9464335431        3.8825002340
Al            3.8825002340        1.9464335431       -1.9360017568
Al           -0.0104433294        3.8720523840        3.8824957134
Al            1.9360017568        3.8720523840       -1.9360017568
Al            1.9360017568       -1.9539131229        3.8899691917
Al           -0.0104478500       -1.9464262267       -1.9359944404
Al            3.8824957134        3.8720523840        3.8824957134
Al           -1.9360017568        3.8720523840       -1.9360017568
Al           -1.9360017568       -1.9464335431        3.8825002340
Al            3.8825002340       -1.9464335431       -1.9360017568



     Writing config-only to output data dir ./pwscf.save/
     NEW-OLD atomic charge density approx. for the potential

     total cpu time spent up to now is        0.6 secs

     Self-consistent Calculation

     iteration #  1     ecut=     7.00 Ry     beta= 0.50
     Davidson diagonalization with overlap
     c_bands:  1 eigenvalues not converged
     ethr =  1.00E-06,  avg # of iterations = 20.0

     total cpu time spent up to now is        0.7 secs

     total energy              =    -127.20492850 Ry
     estimated scf accuracy    <       0.02179761 Ry

     iteration #  2     ecut=     7.00 Ry     beta= 0.50
     Davidson diagonalization with overlap
     ethr =  2.34E-05,  avg # of iterations =  1.0

     total cpu time spent up to now is        0.7 secs

     total energy              =    -127.20414423 Ry
     estimated scf accuracy    <       0.00533734 Ry

     iteration #  3     ecut=     7.00 Ry     beta= 0.50
     Davidson diagonalization with overlap
     ethr =  5.74E-06,  avg # of iterations =  2.0

     total cpu time spent up to now is        0.8 secs

     total energy              =    -127.20506302 Ry
     estimated scf accuracy    <       0.00036171 Ry

     iteration #  4     ecut=     7.00 Ry     beta= 0.50
     Davidson diagonalization with overlap
     ethr =  3.89E-07,  avg # of iterations =  3.0

     total cpu time spent up to now is        0.8 secs

     total energy              =    -127.20505938 Ry
     estimated scf accuracy    <       0.00013901 Ry

     iteration #  5     ecut=     7.00 Ry     beta= 0.50
     Davidson diagonalization with overlap
     ethr =  1.49E-07,  avg # of iterations =  2.0

     total cpu time spent up to now is        0.8 secs

     total energy              =    -127.20508001 Ry
     estimated scf accuracy    <       0.00001567 Ry

     iteration #  6     ecut=     7.00 Ry     beta= 0.50
     Davidson diagonalization with overlap
     ethr =  1.69E-08,  avg # of iterations =  4.0

     total cpu time spent up to now is        0.9 secs

     total energy              =    -127.20507860 Ry
     estimated scf accuracy    <       0.00000717 Ry

     iteration #  7     ecut=     7.00 Ry     beta= 0.50
     Davidson diagonalization with overlap
     ethr =  7.71E-09,  avg # of iterations =  3.0

     total cpu time spent up to now is        0.9 secs

     total energy              =    -127.20508003 Ry
     estimated scf accuracy    <       0.00000471 Ry

     iteration #  8     ecut=     7.00 Ry     beta= 0.50
     Davidson diagonalization with overlap
     ethr =  5.07E-09,  avg # of iterations =  2.0

     total cpu time spent up to now is        0.9 secs

     End of self-consistent calculation

          k = 0.0000 0.0000 0.0000 (   949 PWs)   bands (ev):

    -2.7851  -0.4701  -0.4429  -0.3955  -0.3912  -0.3716  -0.0161   1.8594
     1.8760   1.8868   1.9021   1.9071   1.9111   1.9157   1.9824   2.1257
     2.1508   2.1773   2.8763   3.8006   4.0103   4.0154   4.0237   4.5585
     4.5599   4.5721   5.3065   5.8218   5.8237   5.8390   7.5577   7.5640
     7.8035   7.8103   7.8213   7.8376   7.8473   7.8761   7.8985   7.9440
     8.0114   8.0270   8.2961   8.3047   8.3053   8.7608   8.9321   8.9486
     8.9544   9.0126   9.0801  10.0251  10.0294  10.0486  10.0568  10.1130

     the Fermi energy is     8.7059 ev

!    total energy              =    -127.20508018 Ry
     estimated scf accuracy    <       0.00000021 Ry
     smearing contrib. (-TS)   =       0.08540041 Ry
     internal energy E=F+TS    =    -127.29048059 Ry

     convergence has been achieved in   8 iterations
  * IN ARTn_QE::          31
 Elements:Al 

     Forces acting on atoms (cartesian axes, Ry/au):

     atom    1 type  1   force =     0.64448840    0.00000000    0.64448840
     atom    2 type  1   force =     0.00000000    0.00000000    0.00000000
     atom    3 type  1   force =     0.00000000    0.00000000    0.00000000
     atom    4 type  1   force =     0.00000000    0.00000000    0.00000000
     atom    5 type  1   force =     0.00000000    0.00000000    0.00000000
     atom    6 type  1   force =     0.00000000    0.00000000    0.00000000
     atom    7 type  1   force =     0.00000000    0.00000000    0.00000000
     atom    8 type  1   force =     0.00000000    0.00000000    0.00000000
     atom    9 type  1   force =     0.00000000    0.00000000    0.00000000
     atom   10 type  1   force =     0.00000000    0.00000000    0.00000000
     atom   11 type  1   force =     0.00000000    0.00000000    0.00000000
     atom   12 type  1   force =     0.00000000    0.00000000    0.00000000
     atom   13 type  1   force =     0.00000000    0.00000000    0.00000000
     atom   14 type  1   force =     0.00000000    0.00000000    0.00000000
     atom   15 type  1   force =     0.00000000    0.00000000    0.00000000
     atom   16 type  1   force =     0.00000000    0.00000000    0.00000000
     atom   17 type  1   force =     0.00000000    0.00000000    0.00000000
     atom   18 type  1   force =     0.00000000    0.00000000    0.00000000
     atom   19 type  1   force =     0.00000000    0.00000000    0.00000000
     atom   20 type  1   force =     0.00000000    0.00000000    0.00000000
     atom   21 type  1   force =     0.00000000    0.00000000    0.00000000
     atom   22 type  1   force =     0.00000000    0.00000000    0.00000000
     atom   23 type  1   force =     0.00000000    0.00000000    0.00000000
     atom   24 type  1   force =     0.00000000    0.00000000    0.00000000
     atom   25 type  1   force =     0.00000000    0.00000000    0.00000000
     atom   26 type  1   force =     0.00000000    0.00000000    0.00000000
     atom   27 type  1   force =     0.00000000    0.00000000    0.00000000
     atom   28 type  1   force =     0.00000000    0.00000000    0.00000000
     atom   29 type  1   force =     0.00000000    0.00000000    0.00000000
     atom   30 type  1   force =     0.00000000    0.00000000    0.00000000
     atom   31 type  1   force =     0.00000000    0.00000000    0.00000000

     Total force =     0.911444     Total SCF correction =     0.000637

     Entering FIRE :       iteration =     2

     FIRE Parameters: P = 0.00000000, dt = 20.00, alpha = 0.000 nsteppos =   1 at step  2


ATOMIC_POSITIONS (angstrom)
Al            0.2814283490        0.0000000000        0.2814283490
Al            1.9359944404        1.9539058065       -0.0179168077
Al           -0.0179168077        1.9539058065        1.9359944404
Al            3.8899718704        0.0000000000       -0.0179194864
Al           -1.9359944404        0.0000000000        1.9359944404
Al           -1.9359944404        1.9464262267       -0.0104478500
Al            3.8899691917        1.9539131229        1.9360017568
Al           -0.0104433294        3.8720523840       -0.0104433294
Al            1.9360017568        3.8720523840        1.9360017568
Al            1.9359944404       -1.9539058065       -0.0179168077
Al           -0.0179168077       -1.9539058065        1.9359944404
Al            3.8824957134        3.8720523840       -0.0104433294
Al           -1.9360017568        3.8720523840        1.9360017568
Al           -1.9359944404       -1.9464262267       -0.0104478500
Al            3.8899691917       -1.9539131229        1.9360017568
Al           -0.0179194864        0.0000000000        3.8899718704
Al            1.9359944404        0.0000000000       -1.9359944404
Al            1.9360017568        1.9539131229        3.8899691917
Al           -0.0104478500        1.9464262267       -1.9359944404
Al            3.8899718704        0.0000000000        3.8899718704
Al           -1.9359944404        0.0000000000       -1.9359944404
Al           -1.9360017568        1.9464335431        3.8825002340
Al            3.8825002340        1.9464335431       -1.9360017568
Al           -0.0104433294        3.8720523840        3.8824957134
Al            1.9360017568        3.8720523840       -1.9360017568
Al            1.9360017568       -1.9539131229        3.8899691917
Al           -0.0104478500       -1.9464262267       -1.9359944404
Al            3.8824957134        3.8720523840        3.8824957134
Al           -1.9360017568        3.8720523840       -1.9360017568
Al           -1.9360017568       -1.9464335431        3.8825002340
Al            3.8825002340       -1.9464335431       -1.9360017568



     Writing config-only to output data dir ./pwscf.save/
     NEW-OLD atomic charge density approx. for the potential

     total cpu time spent up to now is        1.0 secs

     Self-consistent Calculation

     iteration #  1     ecut=     7.00 Ry     beta= 0.50
     Davidson diagonalization with overlap
     ethr =  1.00E-06,  avg # of iterations =  9.0

     total cpu time spent up to now is        1.0 secs

     total energy              =    -127.19130450 Ry
     estimated scf accuracy    <       0.02006342 Ry

     iteration #  2     ecut=     7.00 Ry     beta= 0.50
     Davidson diagonalization with overlap
     ethr =  2.16E-05,  avg # of iterations =  1.0

     total cpu time spent up to now is        1.1 secs

     total energy              =    -127.19068516 Ry
     estimated scf accuracy    <       0.00481992 Ry

     iteration #  3     ecut=     7.00 Ry     beta= 0.50
     Davidson diagonalization with overlap
     ethr =  5.18E-06,  avg # of iterations =  3.0

     total cpu time spent up to now is        1.1 secs

     total energy              =    -127.19146528 Ry
     estimated scf accuracy    <       0.00030505 Ry

     iteration #  4     ecut=     7.00 Ry     beta= 0.50
     Davidson diagonalization with overlap
     ethr =  3.28E-07,  avg # of iterations =  2.0

     total cpu time spent up to now is        1.1 secs

     total energy              =    -127.19147385 Ry
     estimated scf accuracy    <       0.00007730 Ry

     iteration #  5     ecut=     7.00 Ry     beta= 0.50
     Davidson diagonalization with overlap
     ethr =  8.31E-08,  avg # of iterations =  3.0

     total cpu time spent up to now is        1.2 secs

     total energy              =    -127.19148585 Ry
     estimated scf accuracy    <       0.00000455 Ry

     iteration #  6     ecut=     7.00 Ry     beta= 0.50
     Davidson diagonalization with overlap
     ethr =  4.89E-09,  avg # of iterations =  5.0

     total cpu time spent up to now is        1.2 secs

     total energy              =    -127.19148662 Ry
     estimated scf accuracy    <       0.00000108 Ry

     iteration #  7     ecut=     7.00 Ry     beta= 0.50
     Davidson diagonalization with overlap
     ethr =  1.17E-09,  avg # of iterations =  3.0

     total cpu time spent up to now is        1.3 secs

     total energy              =    -127.19148661 Ry
     estimated scf accuracy    <       0.00000134 Ry

     iteration #  8     ecut=     7.00 Ry     beta= 0.50
     Davidson diagonalization with overlap
     ethr =  1.17E-09,  avg # of iterations =  3.0

     total cpu time spent up to now is        1.3 secs

     End of self-consistent calculation

          k = 0.0000 0.0000 0.0000 (   949 PWs)   bands (ev):

    -2.7793  -0.4684  -0.4384  -0.3943  -0.3873  -0.3388  -0.0394   1.8617
     1.8828   1.8862   1.9016   1.9134   1.9158   1.9215   2.0603   2.0844
     2.1313   2.1809   2.8543   3.8098   3.9946   4.0123   4.0234   4.5517
     4.5634   4.6132   5.2535   5.8250   5.8284   5.8613   7.5369   7.5721
     7.7825   7.8101   7.8302   7.8380   7.8704   7.8767   7.9144   7.9233
     8.0212   8.0807   8.2855   8.3003   8.3012   8.7735   8.9275   8.9409
     8.9709   8.9846   9.0999  10.0010  10.0356  10.0500  10.0711  10.0940

     the Fermi energy is     8.7085 ev

!    total energy              =    -127.19148674 Ry
     estimated scf accuracy    <       0.00000007 Ry
     smearing contrib. (-TS)   =       0.08362840 Ry
     internal energy E=F+TS    =    -127.27511514 Ry

     convergence has been achieved in   8 iterations
  * IN ARTn_QE::          31
 Elements:Al 

     Forces acting on atoms (cartesian axes, Ry/au):

     atom    1 type  1   force =    -0.00000004   -0.00000001    0.00000004
     atom    2 type  1   force =     0.00761068    0.01184790   -0.00177266
     atom    3 type  1   force =    -0.00177277    0.01184801    0.00761065
     atom    4 type  1   force =    -0.00129256    0.00000003    0.00136154
     atom    5 type  1   force =     0.00281232   -0.00000034    0.00052113
     atom    6 type  1   force =     0.00413529   -0.00378740   -0.00172947
     atom    7 type  1   force =    -0.00150155   -0.00108246    0.00164304
     atom    8 type  1   force =     0.00151718    0.00000019    0.00151724
     atom    9 type  1   force =    -0.00002067   -0.00000004   -0.00002068
     atom   10 type  1   force =     0.00761079   -0.01184816   -0.00177267
     atom   11 type  1   force =    -0.00177274   -0.01184802    0.00761071
     atom   12 type  1   force =    -0.00497228   -0.00000005   -0.00066885
     atom   13 type  1   force =     0.00423531    0.00000006    0.00381196
     atom   14 type  1   force =     0.00413529    0.00378756   -0.00172936
     atom   15 type  1   force =    -0.00150126    0.00108250    0.00164304
     atom   16 type  1   force =     0.00136145    0.00000004   -0.00129269
     atom   17 type  1   force =     0.00052103    0.00000035    0.00281212
     atom   18 type  1   force =     0.00164316   -0.00108264   -0.00150148
     atom   19 type  1   force =    -0.00172972   -0.00378745    0.00413540
     atom   20 type  1   force =    -0.00238892    0.00000005   -0.00238888
     atom   21 type  1   force =     0.00648448    0.00000022    0.00648438
     atom   22 type  1   force =     0.00181806    0.00170911   -0.00069726
     atom   23 type  1   force =    -0.00069757    0.00170864    0.00181775
     atom   24 type  1   force =    -0.00066899    0.00000004   -0.00497240
     atom   25 type  1   force =     0.00381195    0.00000000    0.00423532
     atom   26 type  1   force =     0.00164311    0.00108253   -0.00150144
     atom   27 type  1   force =    -0.00172955    0.00378745    0.00413527
     atom   28 type  1   force =     0.00049270   -0.00000014    0.00049264
     atom   29 type  1   force =    -0.00164508   -0.00000012   -0.00164506
     atom   30 type  1   force =     0.00181801   -0.00170906   -0.00069764
     atom   31 type  1   force =    -0.00069767   -0.00170879    0.00181776

     Total force =     0.035207     Total SCF correction =     0.000365

     Entering FIRE :       iteration =     3

     FIRE Parameters: P = 0.00000000, dt = 22.00, alpha = 0.198 nsteppos =   6 at step  3


ATOMIC_POSITIONS (angstrom)
Al            0.2814283386       -0.0000000020        0.2814283594
Al            1.9381330912        1.9572351438       -0.0184149363
Al           -0.0184149668        1.9572351751        1.9381330826
Al            3.8896086536        0.0000000072       -0.0175368856
Al           -1.9352041608       -0.0000000968        1.9361408819
Al           -1.9348323956        1.9453619438       -0.0109338424
Al            3.8895472466        1.9536089438        1.9364634613
Al           -0.0100169932        3.8720524382       -0.0100169763
Al            1.9359959491        3.8720523719        1.9359959460
Al            1.9381331217       -1.9572352178       -0.0184149397
Al           -0.0184149581       -1.9572351779        1.9381330996
Al            3.8810984712        3.8720523703       -0.0106312802
Al           -1.9348116082        3.8720523996        1.9370729431
Al           -1.9348323968       -1.9453618964       -0.0109338103
Al            3.8895473271       -1.9536089337        1.9364634610
Al           -0.0175369114        0.0000000099        3.8896086170
Al            1.9361408538        0.0000000973       -1.9352042151
Al            1.9364634952        1.9536088939        3.8895472667
Al           -0.0109339116        1.9453619292       -1.9348323662
Al            3.8893005689        0.0000000142        3.8893005791
Al           -1.9341722583        0.0000000617       -1.9341722871
Al           -1.9354908689        1.9469138144        3.8823042984
Al            3.8823042127        1.9469136809       -1.9354909569
Al           -0.0106313205        3.8720523946        3.8810984359
Al            1.9370729393        3.8720523852       -1.9348116034
Al            1.9364634807       -1.9536089240        3.8895472762
Al           -0.0109338641       -1.9453619280       -1.9348324029
Al            3.8826341642        3.8720523460        3.8826341494
Al           -1.9364640338        3.8720523513       -1.9364640307
Al           -1.9354908855       -1.9469138003        3.8823041931
Al            3.8823041832       -1.9469137234       -1.9354909540



     Writing config-only to output data dir ./pwscf.save/
     NEW-OLD atomic charge density approx. for the potential

     total cpu time spent up to now is        1.3 secs

     Self-consistent Calculation

     iteration #  1     ecut=     7.00 Ry     beta= 0.50
     Davidson diagonalization with overlap
     ethr =  1.00E-06,  avg # of iterations =  2.0

     Threshold (ethr) on eigenvalues was too large:
     Diagonalizing with lowered threshold

     Davidson diagonalization with overlap
     ethr =  4.28E-08,  avg # of iterations =  4.0

     total cpu time spent up to now is        1.4 secs

     total energy              =    -127.19211604 Ry
     estimated scf accuracy    <       0.00008641 Ry

     iteration #  2     ecut=     7.00 Ry     beta= 0.50
     Davidson diagonalization with overlap
     ethr =  9.29E-08,  avg # of iterations =  2.0

     total cpu time spent up to now is        1.4 secs

     total energy              =    -127.19211021 Ry
     estimated scf accuracy    <       0.00002441 Ry

     iteration #  3     ecut=     7.00 Ry     beta= 0.50
     Davidson diagonalization with overlap
     ethr =  2.63E-08,  avg # of iterations =  3.0

     total cpu time spent up to now is        1.5 secs

     total energy              =    -127.19211483 Ry
     estimated scf accuracy    <       0.00000177 Ry

     iteration #  4     ecut=     7.00 Ry     beta= 0.50
     Davidson diagonalization with overlap
     ethr =  1.90E-09,  avg # of iterations =  2.0

     total cpu time spent up to now is        1.5 secs

     End of self-consistent calculation

          k = 0.0000 0.0000 0.0000 (   949 PWs)   bands (ev):

    -2.7792  -0.4692  -0.4382  -0.3941  -0.3871  -0.3388  -0.0378   1.8621
     1.8779   1.8897   1.9016   1.9123   1.9185   1.9234   2.0540   2.0868
     2.1337   2.1795   2.8543   3.8108   3.9963   4.0129   4.0234   4.5514
     4.5635   4.6127   5.2554   5.8247   5.8282   5.8591   7.5362   7.5719
     7.7827   7.8069   7.8317   7.8390   7.8727   7.8739   7.9159   7.9239
     8.0230   8.0781   8.2877   8.2999   8.3011   8.7718   8.9277   8.9422
     8.9713   8.9866   9.1002  10.0077  10.0370  10.0477  10.0747  10.0938

     the Fermi energy is     8.7088 ev

!    total energy              =    -127.19211486 Ry
     estimated scf accuracy    <       0.00000027 Ry
     smearing contrib. (-TS)   =       0.08366983 Ry
     internal energy E=F+TS    =    -127.27578469 Ry

     convergence has been achieved in   4 iterations
  * IN ARTn_QE::          31
 Elements:Al 

     Forces acting on atoms (cartesian axes, Ry/au):

     atom    1 type  1   force =    -0.00000003    0.00000013    0.00000003
     atom    2 type  1   force =     0.00692701    0.01098775   -0.00155041
     atom    3 type  1   force =    -0.00155048    0.01098771    0.00692703
     atom    4 type  1   force =    -0.00121799   -0.00000003    0.00144198
     atom    5 type  1   force =     0.00266384    0.00000001    0.00051737
     atom    6 type  1   force =     0.00388092   -0.00347531   -0.00142038
     atom    7 type  1   force =    -0.00120341   -0.00093754    0.00150573
     atom    8 type  1   force =     0.00141681    0.00000002    0.00141687
     atom    9 type  1   force =     0.00008876   -0.00000001    0.00008879
     atom   10 type  1   force =     0.00692686   -0.01098779   -0.00155016
     atom   11 type  1   force =    -0.00155025   -0.01098778    0.00692689
     atom   12 type  1   force =    -0.00415452    0.00000004   -0.00032224
     atom   13 type  1   force =     0.00358185   -0.00000010    0.00326583
     atom   14 type  1   force =     0.00388063    0.00347510   -0.00142020
     atom   15 type  1   force =    -0.00120335    0.00093760    0.00150560
     atom   16 type  1   force =     0.00144192   -0.00000000   -0.00121805
     atom   17 type  1   force =     0.00051734    0.00000001    0.00266384
     atom   18 type  1   force =     0.00150555   -0.00093755   -0.00120333
     atom   19 type  1   force =    -0.00142049   -0.00347526    0.00388079
     atom   20 type  1   force =    -0.00196827    0.00000007   -0.00196835
     atom   21 type  1   force =     0.00590832   -0.00000000    0.00590826
     atom   22 type  1   force =     0.00153225    0.00149536   -0.00043311
     atom   23 type  1   force =    -0.00043295    0.00149549    0.00153210
     atom   24 type  1   force =    -0.00032227   -0.00000000   -0.00415461
     atom   25 type  1   force =     0.00326581   -0.00000008    0.00358177
     atom   26 type  1   force =     0.00150546    0.00093766   -0.00120323
     atom   27 type  1   force =    -0.00142027    0.00347509    0.00388053
     atom   28 type  1   force =     0.00045947    0.00000031    0.00045941
     atom   29 type  1   force =    -0.00151958   -0.00000003   -0.00151962
     atom   30 type  1   force =     0.00153219   -0.00149541   -0.00043303
     atom   31 type  1   force =    -0.00043291   -0.00149547    0.00153207

     Total force =     0.032074     Total SCF correction =     0.000562

     Entering FIRE :       iteration =     4

     FIRE Parameters: P = 0.00000356, dt = 24.20, alpha = 0.196 nsteppos =   7 at step  4


ATOMIC_POSITIONS (angstrom)
Al            0.2814283170        0.0000000504        0.2814283811
Al            1.9428403140        1.9646460862       -0.0194857142
Al           -0.0194858031        1.9646461262        1.9428403072
Al            3.8887923182        0.0000000011       -0.0166123547
Al           -1.9334223959       -0.0000001780        1.9364807056
Al           -1.9322271042        1.9430079918       -0.0119410302
Al            3.8886848978        1.9529588221        1.9374838645
Al           -0.0090640154        3.8720524945       -0.0090639560
Al            1.9360268924        3.8720523580        1.9360269017
Al            1.9428403087       -1.9646462391       -0.0194856191
Al           -0.0194856913       -1.9646461603        1.9428402820
Al            3.8781739584        3.8720523743       -0.0109284927
Al           -1.9323030365        3.8720523733        1.9393478467
Al           -1.9322272235       -1.9430079890       -0.0119408963
Al            3.8886850756       -1.9529587792        1.9374838106
Al           -0.0166124283        0.0000000185        3.8887922238
Al            1.9364806384        0.0000001875       -1.9334224994
Al            1.9374838555        1.9529587251        3.8886849700
Al           -0.0119412064        1.9430079871       -1.9322271012
Al            3.8879067795        0.0000000568        3.8879067660
Al           -1.9301590136        0.0000001143       -1.9301590921
Al           -1.9344161859        1.9479464240        3.8819549590
Al            3.8819548605        1.9479462252       -1.9344164125
Al           -0.0109285803        3.8720524021        3.8781738551
Al            1.9393478314        3.8720523542       -1.9323030577
Al            1.9374837936       -1.9529587359        3.8886850292
Al           -0.0119410263       -1.9430080513       -1.9322272762
Al            3.8829433836        3.8720524377        3.8829433318
Al           -1.9374905739        3.8720523102       -1.9374905845
Al           -1.9344162421       -1.9479464189        3.8819547904
Al            3.8819548200       -1.9479462969       -1.9344164200



     Writing config-only to output data dir ./pwscf.save/
     NEW-OLD atomic charge density approx. for the potential

     total cpu time spent up to now is        1.5 secs

     Self-consistent Calculation

     iteration #  1     ecut=     7.00 Ry     beta= 0.50
     Davidson diagonalization with overlap
     ethr =  1.00E-06,  avg # of iterations =  5.0

     total cpu time spent up to now is        1.6 secs

     total energy              =    -127.19329594 Ry
     estimated scf accuracy    <       0.00037801 Ry

     iteration #  2     ecut=     7.00 Ry     beta= 0.50
     Davidson diagonalization with overlap
     ethr =  4.06E-07,  avg # of iterations =  2.0

     total cpu time spent up to now is        1.6 secs

     total energy              =    -127.19326189 Ry
     estimated scf accuracy    <       0.00013678 Ry

     iteration #  3     ecut=     7.00 Ry     beta= 0.50
     Davidson diagonalization with overlap
     ethr =  1.47E-07,  avg # of iterations =  3.0

     total cpu time spent up to now is        1.7 secs

     total energy              =    -127.19328821 Ry
     estimated scf accuracy    <       0.00001864 Ry

     iteration #  4     ecut=     7.00 Ry     beta= 0.50
     Davidson diagonalization with overlap
     ethr =  2.00E-08,  avg # of iterations =  3.0

     total cpu time spent up to now is        1.7 secs

     total energy              =    -127.19328968 Ry
     estimated scf accuracy    <       0.00000335 Ry

     iteration #  5     ecut=     7.00 Ry     beta= 0.50
     Davidson diagonalization with overlap
     ethr =  3.60E-09,  avg # of iterations =  4.0

     total cpu time spent up to now is        1.8 secs

     total energy              =    -127.19328940 Ry
     estimated scf accuracy    <       0.00000863 Ry

     iteration #  6     ecut=     7.00 Ry     beta= 0.50
     Davidson diagonalization with overlap
     ethr =  3.60E-09,  avg # of iterations =  3.0

     total cpu time spent up to now is        1.8 secs

     End of self-consistent calculation

          k = 0.0000 0.0000 0.0000 (   949 PWs)   bands (ev):

    -2.7792  -0.4719  -0.4383  -0.3926  -0.3867  -0.3389  -0.0345   1.8615
     1.8676   1.8954   1.9027   1.9115   1.9238   1.9271   2.0405   2.0924
     2.1386   2.1769   2.8546   3.8126   3.9997   4.0142   4.0233   4.5510
     4.5638   4.6116   5.2593   5.8244   5.8278   5.8547   7.5347   7.5715
     7.7831   7.7993   7.8347   7.8416   7.8642   7.8809   7.9187   7.9251
     8.0274   8.0726   8.2926   8.2972   8.3029   8.7678   8.9278   8.9449
     8.9722   8.9910   9.1009  10.0215  10.0335  10.0493  10.0822  10.0932

     the Fermi energy is     8.7094 ev

!    total energy              =    -127.19329016 Ry
     estimated scf accuracy    <       0.00000005 Ry
     smearing contrib. (-TS)   =       0.08371546 Ry
     internal energy E=F+TS    =    -127.27700562 Ry

     convergence has been achieved in   6 iterations
  * IN ARTn_QE::          31
 Elements:Al 

     Forces acting on atoms (cartesian axes, Ry/au):

     atom    1 type  1   force =     0.64448840    0.00000000    0.64448840
     atom    2 type  1   force =     0.00000000    0.00000000    0.00000000
     atom    3 type  1   force =     0.00000000    0.00000000    0.00000000
     atom    4 type  1   force =     0.00000000    0.00000000    0.00000000
     atom    5 type  1   force =     0.00000000    0.00000000    0.00000000
     atom    6 type  1   force =     0.00000000    0.00000000    0.00000000
     atom    7 type  1   force =     0.00000000    0.00000000    0.00000000
     atom    8 type  1   force =     0.00000000    0.00000000    0.00000000
     atom    9 type  1   force =     0.00000000    0.00000000    0.00000000
     atom   10 type  1   force =     0.00000000    0.00000000    0.00000000
     atom   11 type  1   force =     0.00000000    0.00000000    0.00000000
     atom   12 type  1   force =     0.00000000    0.00000000    0.00000000
     atom   13 type  1   force =     0.00000000    0.00000000    0.00000000
     atom   14 type  1   force =     0.00000000    0.00000000    0.00000000
     atom   15 type  1   force =     0.00000000    0.00000000    0.00000000
     atom   16 type  1   force =     0.00000000    0.00000000    0.00000000
     atom   17 type  1   force =     0.00000000    0.00000000    0.00000000
     atom   18 type  1   force =     0.00000000    0.00000000    0.00000000
     atom   19 type  1   force =     0.00000000    0.00000000    0.00000000
     atom   20 type  1   force =     0.00000000    0.00000000    0.00000000
     atom   21 type  1   force =     0.00000000    0.00000000    0.00000000
     atom   22 type  1   force =     0.00000000    0.00000000    0.00000000
     atom   23 type  1   force =     0.00000000    0.00000000    0.00000000
     atom   24 type  1   force =     0.00000000    0.00000000    0.00000000
     atom   25 type  1   force =     0.00000000    0.00000000    0.00000000
     atom   26 type  1   force =     0.00000000    0.00000000    0.00000000
     atom   27 type  1   force =     0.00000000    0.00000000    0.00000000
     atom   28 type  1   force =     0.00000000    0.00000000    0.00000000
     atom   29 type  1   force =     0.00000000    0.00000000    0.00000000
     atom   30 type  1   force =     0.00000000    0.00000000    0.00000000
     atom   31 type  1   force =     0.00000000    0.00000000    0.00000000

     Total force =     0.911444     Total SCF correction =     0.000268

     Entering FIRE :       iteration =     5

     FIRE Parameters: P = 0.00000000, dt = 20.00, alpha = 0.000 nsteppos =   1 at step  5


ATOMIC_POSITIONS (angstrom)
Al            0.4311022347        0.0000000504        0.4311022988
Al            1.9428403140        1.9646460862       -0.0194857142
Al           -0.0194858031        1.9646461262        1.9428403072
Al            3.8887923182        0.0000000011       -0.0166123547
Al           -1.9334223959       -0.0000001780        1.9364807056
Al           -1.9322271042        1.9430079918       -0.0119410302
Al            3.8886848978        1.9529588221        1.9374838645
Al           -0.0090640154        3.8720524945       -0.0090639560
Al            1.9360268924        3.8720523580        1.9360269017
Al            1.9428403087       -1.9646462391       -0.0194856191
Al           -0.0194856913       -1.9646461603        1.9428402820
Al            3.8781739584        3.8720523743       -0.0109284927
Al           -1.9323030365        3.8720523733        1.9393478467
Al           -1.9322272235       -1.9430079890       -0.0119408963
Al            3.8886850756       -1.9529587792        1.9374838106
Al           -0.0166124283        0.0000000185        3.8887922238
Al            1.9364806384        0.0000001875       -1.9334224994
Al            1.9374838555        1.9529587251        3.8886849700
Al           -0.0119412064        1.9430079871       -1.9322271012
Al            3.8879067795        0.0000000568        3.8879067660
Al           -1.9301590136        0.0000001143       -1.9301590921
Al           -1.9344161859        1.9479464240        3.8819549590
Al            3.8819548605        1.9479462252       -1.9344164125
Al           -0.0109285803        3.8720524021        3.8781738551
Al            1.9393478314        3.8720523542       -1.9323030577
Al            1.9374837936       -1.9529587359        3.8886850292
Al           -0.0119410263       -1.9430080513       -1.9322272762
Al            3.8829433836        3.8720524377        3.8829433318
Al           -1.9374905739        3.8720523102       -1.9374905845
Al           -1.9344162421       -1.9479464189        3.8819547904
Al            3.8819548200       -1.9479462969       -1.9344164200



     Writing config-only to output data dir ./pwscf.save/
     NEW-OLD atomic charge density approx. for the potential

     total cpu time spent up to now is        1.8 secs

     Self-consistent Calculation

     iteration #  1     ecut=     7.00 Ry     beta= 0.50
     Davidson diagonalization with overlap
     ethr =  1.00E-06,  avg # of iterations =  8.0

     total cpu time spent up to now is        1.9 secs

     total energy              =    -127.17587042 Ry
     estimated scf accuracy    <       0.01547352 Ry

     iteration #  2     ecut=     7.00 Ry     beta= 0.50
     Davidson diagonalization with overlap
     ethr =  1.66E-05,  avg # of iterations =  1.0

     total cpu time spent up to now is        1.9 secs

     total energy              =    -127.17543479 Ry
     estimated scf accuracy    <       0.00380379 Ry

     iteration #  3     ecut=     7.00 Ry     beta= 0.50
     Davidson diagonalization with overlap
     ethr =  4.09E-06,  avg # of iterations =  3.0

     total cpu time spent up to now is        2.0 secs

     total energy              =    -127.17605089 Ry
     estimated scf accuracy    <       0.00025619 Ry

     iteration #  4     ecut=     7.00 Ry     beta= 0.50
     Davidson diagonalization with overlap
     ethr =  2.75E-07,  avg # of iterations =  2.0

     total cpu time spent up to now is        2.0 secs

     total energy              =    -127.17604522 Ry
     estimated scf accuracy    <       0.00009063 Ry

     iteration #  5     ecut=     7.00 Ry     beta= 0.50
     Davidson diagonalization with overlap
     ethr =  9.75E-08,  avg # of iterations =  3.0

     total cpu time spent up to now is        2.0 secs

     total energy              =    -127.17605972 Ry
     estimated scf accuracy    <       0.00001321 Ry

     iteration #  6     ecut=     7.00 Ry     beta= 0.50
     Davidson diagonalization with overlap
     ethr =  1.42E-08,  avg # of iterations =  3.0

     total cpu time spent up to now is        2.1 secs

     total energy              =    -127.17605986 Ry
     estimated scf accuracy    <       0.00000254 Ry

     iteration #  7     ecut=     7.00 Ry     beta= 0.50
     Davidson diagonalization with overlap
     ethr =  2.74E-09,  avg # of iterations =  4.0

     total cpu time spent up to now is        2.1 secs

     total energy              =    -127.17606034 Ry
     estimated scf accuracy    <       0.00000340 Ry

     iteration #  8     ecut=     7.00 Ry     beta= 0.50
     Davidson diagonalization with overlap
     ethr =  2.74E-09,  avg # of iterations =  2.0

     total cpu time spent up to now is        2.1 secs

     End of self-consistent calculation

          k = 0.0000 0.0000 0.0000 (   949 PWs)   bands (ev):

    -2.7743  -0.4690  -0.4389  -0.3901  -0.3838  -0.3076  -0.0587   1.8663
     1.8698   1.8856   1.9090   1.9134   1.9218   1.9471   2.0386   2.1200
     2.1232   2.1764   2.8318   3.8258   3.9839   4.0135   4.0200   4.5375
     4.5680   4.6690   5.1992   5.8228   5.8372   5.8731   7.5054   7.5818
     7.7583   7.8035   7.8081   7.8397   7.8417   7.9086   7.9201   7.9593
     8.0383   8.1196   8.2911   8.2954   8.3055   8.7443   8.9160   8.9311
     8.9883   9.0044   9.1191   9.9606  10.0414  10.0603  10.0709  10.1525

     the Fermi energy is     8.7127 ev

!    total energy              =    -127.17606051 Ry
     estimated scf accuracy    <       0.00000009 Ry
     smearing contrib. (-TS)   =       0.08055331 Ry
     internal energy E=F+TS    =    -127.25661383 Ry

     convergence has been achieved in   8 iterations
  * IN ARTn_QE::          31
 Elements:Al 

     Forces acting on atoms (cartesian axes, Ry/au):

     atom    1 type  1   force =     0.00000001   -0.00000003   -0.00000001
     atom    2 type  1   force =     0.01066041    0.01744890   -0.00355789
     atom    3 type  1   force =    -0.00355787    0.01744889    0.01066045
     atom    4 type  1   force =    -0.00227806    0.00000000    0.00206930
     atom    5 type  1   force =     0.00450988    0.00000005    0.00010210
     atom    6 type  1   force =     0.00358697   -0.00294071   -0.00091797
     atom    7 type  1   force =    -0.00089043   -0.00115104    0.00150180
     atom    8 type  1   force =     0.00174414   -0.00000004    0.00174413
     atom    9 type  1   force =    -0.00024183   -0.00000002   -0.00024181
     atom   10 type  1   force =     0.01066040   -0.01744884   -0.00355789
     atom   11 type  1   force =    -0.00355786   -0.01744887    0.01066044
     atom   12 type  1   force =    -0.00468438   -0.00000001   -0.00012052
     atom   13 type  1   force =     0.00362161   -0.00000002    0.00353159
     atom   14 type  1   force =     0.00358698    0.00294074   -0.00091801
     atom   15 type  1   force =    -0.00089048    0.00115103    0.00150181
     atom   16 type  1   force =     0.00206930    0.00000001   -0.00227807
     atom   17 type  1   force =     0.00010209   -0.00000003    0.00450992
     atom   18 type  1   force =     0.00150177   -0.00115099   -0.00089048
     atom   19 type  1   force =    -0.00091793   -0.00294070    0.00358702
     atom   20 type  1   force =    -0.00271993   -0.00000001   -0.00271997
     atom   21 type  1   force =     0.00438154   -0.00000004    0.00438158
     atom   22 type  1   force =     0.00203671    0.00196340   -0.00079630
     atom   23 type  1   force =    -0.00079620    0.00196348    0.00203675
     atom   24 type  1   force =    -0.00012049   -0.00000002   -0.00468439
     atom   25 type  1   force =     0.00353159   -0.00000001    0.00362162
     atom   26 type  1   force =     0.00150179    0.00115100   -0.00089048
     atom   27 type  1   force =    -0.00091797    0.00294074    0.00358702
     atom   28 type  1   force =     0.00084952   -0.00000003    0.00084953
     atom   29 type  1   force =    -0.00129968    0.00000002   -0.00129965
     atom   30 type  1   force =     0.00203670   -0.00196341   -0.00079622
     atom   31 type  1   force =    -0.00079616   -0.00196347    0.00203673

     Total force =     0.045645     Total SCF correction =     0.000424

     Entering FIRE :       iteration =     6

     FIRE Parameters: P = 0.00000000, dt = 22.00, alpha = 0.198 nsteppos =   6 at step  6


ATOMIC_POSITIONS (angstrom)
Al            0.4311022377        0.0000000418        0.4311022957
Al            1.9458359577        1.9695493418       -0.0204855032
Al           -0.0204855864        1.9695493791        1.9458359641
Al            3.8881521684        0.0000000025       -0.0160308691
Al           -1.9321550897       -0.0000001653        1.9365093977
Al           -1.9312191412        1.9421816324       -0.0121989858
Al            3.8884346823        1.9526353719        1.9379058794
Al           -0.0085739011        3.8720524837       -0.0085738454
Al            1.9359589373        3.8720523535        1.9359589509
Al            1.9458359495       -1.9695494761       -0.0204854095
Al           -0.0204854731       -1.9695494054        1.9458359360
Al            3.8768576157        3.8720523706       -0.0109623606
Al           -1.9312853407        3.8720523679        1.9403402478
Al           -1.9312192575       -1.9421816219       -0.0121988636
Al            3.8884348459       -1.9526353315        1.9379058284
Al           -0.0160309414        0.0000000206        3.8881520719
Al            1.9365093276        0.0000001787       -1.9321551813
Al            1.9379058629        1.9526352898        3.8884347404
Al           -0.0121991515        1.9421816305       -1.9312191266
Al            3.8871424604        0.0000000554        3.8871424372
Al           -1.9289277713        0.0000001024       -1.9289278391
Al           -1.9338438577        1.9484981520        3.8817311941
Al            3.8817311228        1.9484979767       -1.9338440720
Al           -0.0109624388        3.8720523978        3.8768575117
Al            1.9403402319        3.8720523516       -1.9312853581
Al            1.9379058073       -1.9526352974        3.8884347973
Al           -0.0121989825       -1.9421816831       -1.9312192994
Al            3.8831821042        3.8720524287        3.8831820560
Al           -1.9378557936        3.8720523168       -1.9378557942
Al           -1.9338439155       -1.9484981497        3.8817310479
Al            3.8817310937       -1.9484980440       -1.9338440854



     Writing config-only to output data dir ./pwscf.save/
     NEW-OLD atomic charge density approx. for the potential

     total cpu time spent up to now is        2.1 secs

     Self-consistent Calculation

     iteration #  1     ecut=     7.00 Ry     beta= 0.50
     Davidson diagonalization with overlap
     ethr =  1.00E-06,  avg # of iterations =  4.0

     total cpu time spent up to now is        2.2 secs

     total energy              =    -127.17711703 Ry
     estimated scf accuracy    <       0.00015283 Ry

     iteration #  2     ecut=     7.00 Ry     beta= 0.50
     Davidson diagonalization with overlap
     ethr =  1.64E-07,  avg # of iterations =  2.0

     total cpu time spent up to now is        2.2 secs

     total energy              =    -127.17710291 Ry
     estimated scf accuracy    <       0.00006022 Ry

     iteration #  3     ecut=     7.00 Ry     beta= 0.50
     Davidson diagonalization with overlap
     ethr =  6.47E-08,  avg # of iterations =  3.0

     total cpu time spent up to now is        2.2 secs

     total energy              =    -127.17711519 Ry
     estimated scf accuracy    <       0.00000997 Ry

     iteration #  4     ecut=     7.00 Ry     beta= 0.50
     Davidson diagonalization with overlap
     ethr =  1.07E-08,  avg # of iterations =  3.0

     total cpu time spent up to now is        2.3 secs

     total energy              =    -127.17711622 Ry
     estimated scf accuracy    <       0.00000120 Ry

     iteration #  5     ecut=     7.00 Ry     beta= 0.50
     Davidson diagonalization with overlap
     ethr =  1.29E-09,  avg # of iterations =  4.0

     total cpu time spent up to now is        2.3 secs

     total energy              =    -127.17711597 Ry
     estimated scf accuracy    <       0.00000409 Ry

     iteration #  6     ecut=     7.00 Ry     beta= 0.50
     Davidson diagonalization with overlap
     ethr =  1.29E-09,  avg # of iterations =  3.0

     total cpu time spent up to now is        2.3 secs

     End of self-consistent calculation

          k = 0.0000 0.0000 0.0000 (   949 PWs)   bands (ev):

    -2.7744  -0.4722  -0.4390  -0.3894  -0.3836  -0.3060  -0.0565   1.8636
     1.8641   1.8889   1.9096   1.9125   1.9263   1.9488   2.0387   2.1196
     2.1223   2.1760   2.8321   3.8273   3.9859   4.0145   4.0200   4.5373
     4.5683   4.6686   5.2019   5.8224   5.8368   5.8702   7.5043   7.5814
     7.7588   7.7985   7.8135   7.8399   7.8420   7.9036   7.9217   7.9605
     8.0405   8.1171   8.2943   8.2945   8.3065   8.7429   8.9169   8.9318
     8.9892   9.0050   9.1208   9.9695  10.0365  10.0626  10.0748  10.1516

     the Fermi energy is     8.7132 ev

!    total energy              =    -127.17711632 Ry
     estimated scf accuracy    <       0.00000003 Ry
     smearing contrib. (-TS)   =       0.08061087 Ry
     internal energy E=F+TS    =    -127.25772720 Ry

     convergence has been achieved in   6 iterations
  * IN ARTn_QE::          31
 Elements:Al 

     Forces acting on atoms (cartesian axes, Ry/au):

     atom    1 type  1   force =     0.00000001   -0.00000002   -0.00000001
     atom    2 type  1   force =     0.00962014    0.01607858   -0.00313461
     atom    3 type  1   force =    -0.00313459    0.01607856    0.00962015
     atom    4 type  1   force =    -0.00220562   -0.00000000    0.00213359
     atom    5 type  1   force =     0.00429159    0.00000004    0.00015682
     atom    6 type  1   force =     0.00338236   -0.00262046   -0.00064432
     atom    7 type  1   force =    -0.00066175   -0.00094792    0.00141720
     atom    8 type  1   force =     0.00161915   -0.00000003    0.00161913
     atom    9 type  1   force =    -0.00005784   -0.00000000   -0.00005783
     atom   10 type  1   force =     0.00962014   -0.01607852   -0.00313463
     atom   11 type  1   force =    -0.00313460   -0.01607855    0.00962015
     atom   12 type  1   force =    -0.00377769   -0.00000001    0.00023148
     atom   13 type  1   force =     0.00288688   -0.00000001    0.00301799
     atom   14 type  1   force =     0.00338238    0.00262047   -0.00064437
     atom   15 type  1   force =    -0.00066180    0.00094791    0.00141722
     atom   16 type  1   force =     0.00213361   -0.00000000   -0.00220561
     atom   17 type  1   force =     0.00015681   -0.00000003    0.00429162
     atom   18 type  1   force =     0.00141718   -0.00094789   -0.00066178
     atom   19 type  1   force =    -0.00064429   -0.00262046    0.00338236
     atom   20 type  1   force =    -0.00228488   -0.00000001   -0.00228490
     atom   21 type  1   force =     0.00387089   -0.00000004    0.00387091
     atom   22 type  1   force =     0.00165049    0.00178827   -0.00047298
     atom   23 type  1   force =    -0.00047295    0.00178830    0.00165053
     atom   24 type  1   force =     0.00023152   -0.00000001   -0.00377768
     atom   25 type  1   force =     0.00301798   -0.00000001    0.00288689
     atom   26 type  1   force =     0.00141721    0.00094791   -0.00066180
     atom   27 type  1   force =    -0.00064433    0.00262048    0.00338240
     atom   28 type  1   force =     0.00079153   -0.00000001    0.00079153
     atom   29 type  1   force =    -0.00120537    0.00000001   -0.00120536
     atom   30 type  1   force =     0.00165050   -0.00178826   -0.00047294
     atom   31 type  1   force =    -0.00047295   -0.00178828    0.00165054

     Total force =     0.041539     Total SCF correction =     0.000200

     Entering FIRE :       iteration =     7

     FIRE Parameters: P = 0.00000598, dt = 24.20, alpha = 0.196 nsteppos =   7 at step  7


ATOMIC_POSITIONS (angstrom)
Al            0.4311022441        0.0000000253        0.4311022893
Al            1.9523965426        1.9804228087       -0.0226441458
Al           -0.0226442175        1.9804228389        1.9523965639
Al            3.8866892852        0.0000000030       -0.0146491514
Al           -1.9292894615       -0.0000001387        1.9365985310
Al           -1.9289525421        1.9403854050       -0.0126890793
Al            3.8879443456        1.9519639206        1.9388552970
Al           -0.0074821510        3.8720524636       -0.0074821043
Al            1.9358753239        3.8720523491        1.9358753460
Al            1.9523965306       -1.9804229044       -0.0226440615
Al           -0.0226441069       -1.9804228519        1.9523965339
Al            3.8741575584        3.8720523643       -0.0108981976
Al           -1.9292115829        3.8720523599        1.9424449408
Al           -1.9289526439       -1.9403853870       -0.0126889879
Al            3.8879444760       -1.9519638853        1.9388552550
Al           -0.0146492162        0.0000000217        3.8866891901
Al            1.9365984556        0.0000001567       -1.9292895305
Al            1.9388552671        1.9519638620        3.8879443797
Al           -0.0126892234        1.9403854084       -1.9289525150
Al            3.8855375394        0.0000000480        3.8855374991
Al           -1.9262650834        0.0000000756       -1.9262651353
Al           -1.9326666577        1.9497131517        3.8813409980
Al            3.8813409631        1.9497130122       -1.9326668415
Al           -0.0108982542        3.8720523889        3.8741574585
Al            1.9424449237        3.8720523471       -1.9292115929
Al            1.9388552264       -1.9519638599        3.8879444266
Al           -0.0126890831       -1.9403854423       -1.9289526714
Al            3.8837150412        3.8720524161        3.8837149959
Al           -1.9386688575        3.8720523286       -1.9386688443
Al           -1.9326667104       -1.9497131491        3.8813408898
Al            3.8813409470       -1.9497130648       -1.9326668574



     Writing config-only to output data dir ./pwscf.save/
     NEW-OLD atomic charge density approx. for the potential

     total cpu time spent up to now is        2.4 secs

     Self-consistent Calculation

     iteration #  1     ecut=     7.00 Ry     beta= 0.50
     Davidson diagonalization with overlap
     ethr =  1.00E-06,  avg # of iterations =  5.0

     total cpu time spent up to now is        2.4 secs

     total energy              =    -127.17909269 Ry
     estimated scf accuracy    <       0.00078322 Ry

     iteration #  2     ecut=     7.00 Ry     beta= 0.50
     Davidson diagonalization with overlap
     ethr =  8.42E-07,  avg # of iterations =  1.0

     total cpu time spent up to now is        2.4 secs

     total energy              =    -127.17904067 Ry
     estimated scf accuracy    <       0.00023983 Ry

     iteration #  3     ecut=     7.00 Ry     beta= 0.50
     Davidson diagonalization with overlap
     ethr =  2.58E-07,  avg # of iterations =  3.0

     total cpu time spent up to now is        2.5 secs

     total energy              =    -127.17908720 Ry
     estimated scf accuracy    <       0.00002632 Ry

     iteration #  4     ecut=     7.00 Ry     beta= 0.50
     Davidson diagonalization with overlap
     ethr =  2.83E-08,  avg # of iterations =  4.0

     total cpu time spent up to now is        2.5 secs

     total energy              =    -127.17908762 Ry
     estimated scf accuracy    <       0.00000531 Ry

     iteration #  5     ecut=     7.00 Ry     beta= 0.50
     Davidson diagonalization with overlap
     ethr =  5.71E-09,  avg # of iterations =  4.0

     total cpu time spent up to now is        2.5 secs

     total energy              =    -127.17908765 Ry
     estimated scf accuracy    <       0.00001649 Ry

     iteration #  6     ecut=     7.00 Ry     beta= 0.50
     Davidson diagonalization with overlap
     ethr =  5.71E-09,  avg # of iterations =  3.0

     total cpu time spent up to now is        2.6 secs

     End of self-consistent calculation

          k = 0.0000 0.0000 0.0000 (   949 PWs)   bands (ev):

    -2.7748  -0.4799  -0.4399  -0.3871  -0.3832  -0.3028  -0.0518   1.8500
     1.8578   1.8946   1.9115   1.9124   1.9359   1.9522   2.0373   2.1138
     2.1275   2.1752   2.8328   3.8302   3.9898   4.0165   4.0200   4.5371
     4.5690   4.6676   5.2074   5.8218   5.8359   5.8641   7.5018   7.5806
     7.7597   7.7877   7.8250   7.8399   7.8426   7.8928   7.9247   7.9633
     8.0456   8.1118   8.2926   8.3014   8.3090   8.7391   8.9194   8.9332
     8.9913   9.0063   9.1243   9.9885  10.0255  10.0679  10.0832  10.1494

     the Fermi energy is     8.7143 ev

!    total energy              =    -127.17908918 Ry
     estimated scf accuracy    <       0.00000006 Ry
     smearing contrib. (-TS)   =       0.08067493 Ry
     internal energy E=F+TS    =    -127.25976412 Ry

     convergence has been achieved in   6 iterations
  * IN ARTn_QE::          31
 Elements:Al 

     Forces acting on atoms (cartesian axes, Ry/au):

     atom    1 type  1   force =     0.00000000   -0.00000001   -0.00000000
     atom    2 type  1   force =     0.00736080    0.01304058   -0.00226221
     atom    3 type  1   force =    -0.00226220    0.01304057    0.00736080
     atom    4 type  1   force =    -0.00200885   -0.00000000    0.00222610
     atom    5 type  1   force =     0.00380745    0.00000003    0.00027744
     atom    6 type  1   force =     0.00294835   -0.00194966   -0.00008195
     atom    7 type  1   force =    -0.00013661   -0.00053496    0.00123468
     atom    8 type  1   force =     0.00129874   -0.00000002    0.00129873
     atom    9 type  1   force =     0.00035439    0.00000000    0.00035440
     atom   10 type  1   force =     0.00736080   -0.01304054   -0.00226223
     atom   11 type  1   force =    -0.00226221   -0.01304056    0.00736080
     atom   12 type  1   force =    -0.00171315   -0.00000000    0.00092985
     atom   13 type  1   force =     0.00128397   -0.00000000    0.00191367
     atom   14 type  1   force =     0.00294837    0.00194965   -0.00008199
     atom   15 type  1   force =    -0.00013664    0.00053495    0.00123469
     atom   16 type  1   force =     0.00222611   -0.00000000   -0.00200884
     atom   17 type  1   force =     0.00027745   -0.00000003    0.00380747
     atom   18 type  1   force =     0.00123467   -0.00053494   -0.00013663
     atom   19 type  1   force =    -0.00008192   -0.00194965    0.00294835
     atom   20 type  1   force =    -0.00131786   -0.00000001   -0.00131787
     atom   21 type  1   force =     0.00278237   -0.00000003    0.00278238
     atom   22 type  1   force =     0.00084334    0.00137900    0.00023832
     atom   23 type  1   force =     0.00023834    0.00137903    0.00084338
     atom   24 type  1   force =     0.00092987   -0.00000001   -0.00171314
     atom   25 type  1   force =     0.00191367   -0.00000000    0.00128397
     atom   26 type  1   force =     0.00123469    0.00053495   -0.00013664
     atom   27 type  1   force =    -0.00008196    0.00194966    0.00294838
     atom   28 type  1   force =     0.00068117   -0.00000001    0.00068117
     atom   29 type  1   force =    -0.00096503    0.00000001   -0.00096502
     atom   30 type  1   force =     0.00084336   -0.00137900    0.00023835
     atom   31 type  1   force =     0.00023834   -0.00137901    0.00084339

     Total force =     0.032805     Total SCF correction =     0.000228

     Entering FIRE :       iteration =     8

     FIRE Parameters: P = 0.00000937, dt = 26.62, alpha = 0.194 nsteppos =   8 at step  8


ATOMIC_POSITIONS (angstrom)
Al            0.4311022528        0.0000000033        0.4311022807
Al            1.9625897281        1.9978169174       -0.0259030489
Al           -0.0259031034        1.9978169354        1.9625897619
Al            3.8841978538        0.0000000024       -0.0121004898
Al           -1.9244849341       -0.0000000968        1.9368425292
Al           -1.9251899285        1.9376336510       -0.0131722926
Al            3.8874284137        1.9510505504        1.9404311745
Al           -0.0057419983        3.8720524350       -0.0057419635
Al            1.9360119322        3.8720523462        1.9360119652
Al            1.9625897133       -1.9978169567       -0.0259029830
Al           -0.0259030023       -1.9978169322        1.9625897332
Al            3.8707451618        3.8720523572       -0.0102883944
Al           -1.9266096318        3.8720523515        1.9454487590
Al           -1.9251900029       -1.9376336280       -0.0131722516
Al            3.8874284930       -1.9510505250        1.9404311483
Al           -0.0121005398        0.0000000212        3.8841977666
Al            1.9368424497        0.0000001193       -1.9244849711
Al            1.9404311283        1.9510505237        3.8874284159
Al           -0.0131724038        1.9376336620       -1.9251898905
Al            3.8833310750        0.0000000348        3.8833310138
Al           -1.9222500218        0.0000000338       -1.9222500534
Al           -1.9311215463        1.9516102970        3.8811367901
Al            3.8811367993        1.9516102043       -1.9311216806
Al           -0.0102884188        3.8720523768        3.8707450745
Al            1.9454487425        3.8720523429       -1.9266096321
Al            1.9404311112       -1.9510505067        3.8874284470
Al           -0.0131723116       -1.9376336715       -1.9251900154
Al            3.8845925541        3.8720524005        3.8845925131
Al           -1.9399635085        3.8720523462       -1.9399634790
Al           -1.9311215865       -1.9516102915        3.8811367355
Al            3.8811367965       -1.9516102321       -1.9311216958



     Writing config-only to output data dir ./pwscf.save/
     NEW-OLD atomic charge density approx. for the potential

     total cpu time spent up to now is        2.6 secs

     Self-consistent Calculation

     iteration #  1     ecut=     7.00 Ry     beta= 0.50
     Davidson diagonalization with overlap
     ethr =  1.00E-06,  avg # of iterations =  6.0

     total cpu time spent up to now is        2.6 secs

     total energy              =    -127.18126734 Ry
     estimated scf accuracy    <       0.00213157 Ry

     iteration #  2     ecut=     7.00 Ry     beta= 0.50
     Davidson diagonalization with overlap
     ethr =  2.29E-06,  avg # of iterations =  1.0

     total cpu time spent up to now is        2.7 secs

     total energy              =    -127.18116084 Ry
     estimated scf accuracy    <       0.00057134 Ry

     iteration #  3     ecut=     7.00 Ry     beta= 0.50
     Davidson diagonalization with overlap
     ethr =  6.14E-07,  avg # of iterations =  3.0

     total cpu time spent up to now is        2.7 secs

     total energy              =    -127.18126460 Ry
     estimated scf accuracy    <       0.00005200 Ry

     iteration #  4     ecut=     7.00 Ry     beta= 0.50
     Davidson diagonalization with overlap
     ethr =  5.59E-08,  avg # of iterations =  2.0

     total cpu time spent up to now is        2.7 secs

     total energy              =    -127.18126351 Ry
     estimated scf accuracy    <       0.00001327 Ry

     iteration #  5     ecut=     7.00 Ry     beta= 0.50
     Davidson diagonalization with overlap
     ethr =  1.43E-08,  avg # of iterations =  4.0

     total cpu time spent up to now is        2.8 secs

     total energy              =    -127.18126532 Ry
     estimated scf accuracy    <       0.00002098 Ry

     iteration #  6     ecut=     7.00 Ry     beta= 0.50
     Davidson diagonalization with overlap
     ethr =  1.43E-08,  avg # of iterations =  2.0

     total cpu time spent up to now is        2.8 secs

     End of self-consistent calculation

          k = 0.0000 0.0000 0.0000 (   949 PWs)   bands (ev):

    -2.7758  -0.4932  -0.4428  -0.3828  -0.3827  -0.2983  -0.0446   1.8296
     1.8459   1.8988   1.9150   1.9161   1.9497   1.9566   2.0300   2.1113
     2.1353   2.1741   2.8343   3.8337   3.9951   4.0193   4.0199   4.5380
     4.5703   4.6654   5.2155   5.8213   5.8343   5.8557   7.4979   7.5790
     7.7606   7.7718   7.8388   7.8415   7.8431   7.8764   7.9281   7.9675
     8.0540   8.1034   8.2898   8.3125   8.3137   8.7316   8.9244   8.9342
     8.9945   9.0082   9.1295  10.0087  10.0167  10.0761  10.0952  10.1453

     the Fermi energy is     8.7160 ev

!    total energy              =    -127.18126711 Ry
     estimated scf accuracy    <       0.00000017 Ry
     smearing contrib. (-TS)   =       0.08062370 Ry
     internal energy E=F+TS    =    -127.26189082 Ry

     convergence has been achieved in   6 iterations
  * IN ARTn_QE::          31
 Elements:Al 

     Forces acting on atoms (cartesian axes, Ry/au):

     atom    1 type  1   force =    -0.00082744   -0.00253949    0.00359403
     atom    2 type  1   force =     0.00154222   -0.00067565    0.00197069
     atom    3 type  1   force =    -0.00140382    0.00051038    0.00186796
     atom    4 type  1   force =     0.00128957    0.00141002   -0.00332654
     atom    5 type  1   force =    -0.00039561    0.00028989    0.00376705
     atom    6 type  1   force =     0.00130732   -0.00245623   -0.00207481
     atom    7 type  1   force =    -0.00314952   -0.00055751   -0.00282822
     atom    8 type  1   force =     0.00083455   -0.00277674    0.00432985
     atom    9 type  1   force =    -0.00264046   -0.00139300   -0.00344915
     atom   10 type  1   force =    -0.00098952    0.00236587    0.00373169
     atom   11 type  1   force =     0.00144926   -0.00319456   -0.00314172
     atom   12 type  1   force =    -0.00078587    0.00171863   -0.00471785
     atom   13 type  1   force =    -0.00161227   -0.00160450   -0.00314999
     atom   14 type  1   force =    -0.00230860    0.00363537    0.00207208
     atom   15 type  1   force =    -0.00039579   -0.00099094    0.00450119
     atom   16 type  1   force =    -0.00029812   -0.00285275   -0.00330403
     atom   17 type  1   force =     0.00378833   -0.00202440    0.00075457
     atom   18 type  1   force =     0.00273220   -0.00006560    0.00136324
     atom   19 type  1   force =     0.00400535    0.00042614   -0.00113396
     atom   20 type  1   force =     0.00134416   -0.00098154    0.00182921
     atom   21 type  1   force =     0.00224093    0.00132044   -0.00160712
     atom   22 type  1   force =    -0.00177621    0.00277477    0.00026554
     atom   23 type  1   force =     0.00136757   -0.00143066   -0.00260224
     atom   24 type  1   force =    -0.00220700    0.00195989   -0.00199744
     atom   25 type  1   force =    -0.00006969   -0.00399962    0.00186328
     atom   26 type  1   force =     0.00118148    0.00403511   -0.00106527
     atom   27 type  1   force =     0.00123258    0.00380969    0.00053672
     atom   28 type  1   force =    -0.00483265   -0.00162270   -0.00137161
     atom   29 type  1   force =     0.00168098    0.00011923   -0.00412130
     atom   30 type  1   force =    -0.00203679   -0.00051703   -0.00145426
     atom   31 type  1   force =     0.00432726   -0.00298543    0.00048640

     Total force =     0.022786     Total SCF correction =     0.000477

     Entering FIRE :       iteration =     9

     FIRE Parameters: P = 0.00000000, dt = 20.00, alpha = 0.000 nsteppos =   1 at step  9


ATOMIC_POSITIONS (angstrom)
Al            0.4309100912       -0.0005897601        0.4319369476
Al            1.9629478891        1.9976600072       -0.0254453825
Al           -0.0262291227        1.9979354640        1.9630235719
Al            3.8844973393        0.0003274603       -0.0128730339
Al           -1.9245768089        0.0000672269        1.9377173773
Al           -1.9248863213        1.9370632248       -0.0136541399
Al            3.8866969795        1.9509210760        1.9397743577
Al           -0.0055481845        3.8714075738       -0.0047364134
Al            1.9353987206        3.8717288404        1.9352109456
Al            1.9623599107       -1.9972675144       -0.0250363466
Al           -0.0255664309       -1.9985588264        1.9618601100
Al            3.8705626536        3.8724514873       -0.0113840525
Al           -1.9269840600        3.8716797270        1.9447172158
Al           -1.9257261449       -1.9367893612       -0.0126910385
Al            3.8873365772       -1.9512806583        1.9414764909
Al           -0.0121697746       -0.0006624923        3.8834304487
Al            1.9377222389       -0.0004700201       -1.9243097314
Al            1.9410656447        1.9510352891        3.8877450113
Al           -0.0122422133        1.9377326274       -1.9254532366
Al            3.8836432375       -0.0002279139        3.8837558247
Al           -1.9217295958        0.0003066886       -1.9226232859
Al           -1.9315340468        1.9522547003        3.8811984593
Al            3.8814543997        1.9512779516       -1.9317260165
Al           -0.0108009658        3.8725075364        3.8702811962
Al            1.9454325590        3.8711234837       -1.9261769101
Al            1.9407054932       -1.9501134047        3.8871810526
Al           -0.0128860619       -1.9367489216       -1.9250653693
Al            3.8834702348        3.8716755495        3.8842739741
Al           -1.9395731224        3.8720800356       -1.9409205953
Al           -1.9315946038       -1.9517303643        3.8807990036
Al            3.8821417457       -1.9523035587       -1.9310087358



     Writing config-only to output data dir ./pwscf.save/
     NEW-OLD atomic charge density approx. for the potential

     total cpu time spent up to now is        2.8 secs

     Self-consistent Calculation

     iteration #  1     ecut=     7.00 Ry     beta= 0.50
     Davidson diagonalization with overlap
     ethr =  1.00E-06,  avg # of iterations =  2.0

     Threshold (ethr) on eigenvalues was too large:
     Diagonalizing with lowered threshold

     Davidson diagonalization with overlap
     ethr =  1.11E-08,  avg # of iterations =  4.0

     total cpu time spent up to now is        2.9 secs

     total energy              =    -127.18122943 Ry
     estimated scf accuracy    <       0.00002416 Ry

     iteration #  2     ecut=     7.00 Ry     beta= 0.50
     Davidson diagonalization with overlap
     ethr =  2.60E-08,  avg # of iterations =  1.0

     total cpu time spent up to now is        2.9 secs

     total energy              =    -127.18122850 Ry
     estimated scf accuracy    <       0.00000609 Ry

     iteration #  3     ecut=     7.00 Ry     beta= 0.50
     Davidson diagonalization with overlap
     ethr =  6.55E-09,  avg # of iterations =  3.0

[...]
     atom   23 type  1   force =     0.00010574   -0.00017223   -0.00031918
     atom   24 type  1   force =     0.00032587   -0.00000061    0.00019928
     atom   25 type  1   force =    -0.00038209   -0.00000038   -0.00042056
     atom   26 type  1   force =     0.00002220   -0.00009341   -0.00000755
     atom   27 type  1   force =     0.00004669    0.00029791    0.00057255
     atom   28 type  1   force =    -0.00025713    0.00000053   -0.00025694
     atom   29 type  1   force =    -0.00018854   -0.00000082   -0.00018824
     atom   30 type  1   force =    -0.00031900    0.00017442    0.00010359
     atom   31 type  1   force =     0.00010516    0.00017300   -0.00031864

     Total force =     0.002600     Total SCF correction =     0.000856
     SCF correction compared to forces is large: reduce conv_thr to get better values

     Entering FIRE :       iteration =   103

     FIRE Parameters: P = 0.00000005, dt = 11.79, alpha = 0.200 nsteppos =   4 at step103


ATOMIC_POSITIONS (angstrom)
Al            0.0131267805        0.0000519820        0.0132184684
Al            1.9600376705        1.9547955060        0.0055089047
Al            0.0054270433        1.9547995210        1.9601208530
Al            3.9126536353        0.0000560457        0.0061363626
Al           -1.9116392123        0.0000520197        1.9591181540
Al           -1.9140971922        1.9471963992        0.0132574488
Al            3.9137448542        1.9540886364        1.9605980788
Al            0.0133643264        3.8721044133        0.0134480946
Al            1.9593040229        3.8721093680        1.9593923226
Al            1.9600380280       -1.9546819483        0.0055096619
Al            0.0054273456       -1.9546859952        1.9601241450
Al            3.9054159790        3.8721114694        0.0131472751
Al           -1.9108603100        3.8721095050        1.9612141028
Al           -1.9140921539       -1.9470861896        0.0132600501
Al            3.9137375120       -1.9539790630        1.9605941814
Al            0.0060537349        0.0000584408        3.9127416093
Al            1.9590203438        0.0000532507       -1.9115531455
Al            1.9605153194        1.9540929166        3.9138322284
Al            0.0131705705        1.9471959107       -1.9140144493
Al            3.9134744473        0.0000520680        3.9135607405
Al           -1.9119042586        0.0000522612       -1.9118162759
Al           -1.9114490236        1.9470394225        3.9064271043
Al            3.9063388358        1.9470319579       -1.9113631607
Al            0.0130621014        3.8721102740        3.9054977319
Al            1.9611237821        3.8721096984       -1.9107695246
Al            1.9605113749       -1.9539826504        3.9138304094
Al            0.0131729903       -1.9470844679       -1.9140112476
Al            3.9075947860        3.8721048942        3.9076818213
Al           -1.9109345590        3.8721110447       -1.9108490721
Al           -1.9114507355       -1.9469314795        3.9064332409
Al            3.9063394911       -1.9469254467       -1.9113655793



     Writing config-only to output data dir ./pwscf.save/
     NEW-OLD atomic charge density approx. for the potential

     total cpu time spent up to now is       28.3 secs

     Self-consistent Calculation

     iteration #  1     ecut=     7.00 Ry     beta= 0.50
     Davidson diagonalization with overlap
     ethr =  1.00E-06,  avg # of iterations =  2.0

     Threshold (ethr) on eigenvalues was too large:
     Diagonalizing with lowered threshold

     Davidson diagonalization with overlap
     ethr =  8.34E-09,  avg # of iterations =  2.0

     total cpu time spent up to now is       28.4 secs

     total energy              =    -127.21045539 Ry
     estimated scf accuracy    <       0.00000987 Ry

     iteration #  2     ecut=     7.00 Ry     beta= 0.50
     Davidson diagonalization with overlap
     ethr =  1.06E-08,  avg # of iterations =  1.0

     total cpu time spent up to now is       28.4 secs

     total energy              =    -127.21045492 Ry
     estimated scf accuracy    <       0.00000282 Ry

     iteration #  3     ecut=     7.00 Ry     beta= 0.50
     Davidson diagonalization with overlap
     ethr =  3.04E-09,  avg # of iterations =  3.0

     total cpu time spent up to now is       28.4 secs

     End of self-consistent calculation

          k = 0.0000 0.0000 0.0000 (   949 PWs)   bands (ev):

    -2.7929  -0.4702  -0.4669  -0.3986  -0.3965  -0.3941   0.0040   1.8583
     1.8596   1.8635   1.9039   1.9061   1.9067   1.9098   1.9125   2.1674
     2.1677   2.1705   2.8963   3.7947   4.0198   4.0202   4.0205   4.5567
     4.5569   4.5569   5.3459   5.8185   5.8190   5.8196   7.5585   7.5587
     7.8133   7.8143   7.8166   7.8199   7.8373   7.8374   7.8431   8.0016
     8.0019   8.0036   8.3132   8.3141   8.3143   8.7192   8.9366   8.9394
     8.9403   9.0647   9.0689  10.0201  10.0241  10.0450  10.0454  10.0495

     the Fermi energy is     8.7050 ev

!    total energy              =    -127.21045499 Ry
     estimated scf accuracy    <       0.00000055 Ry
     smearing contrib. (-TS)   =       0.08492182 Ry
     internal energy E=F+TS    =    -127.29537681 Ry

     convergence has been achieved in   3 iterations
  * IN ARTn_QE::          31
 Elements:Al 

     Forces acting on atoms (cartesian axes, Ry/au):

     atom    1 type  1   force =    -0.00103103    0.00000086   -0.00103164
     atom    2 type  1   force =    -0.00004706    0.00002320    0.00012478
     atom    3 type  1   force =     0.00012403    0.00002243   -0.00004664
     atom    4 type  1   force =     0.00011238   -0.00000009    0.00008502
     atom    5 type  1   force =    -0.00013958    0.00000037    0.00015126
     atom    6 type  1   force =     0.00047682   -0.00025171    0.00004557
     atom    7 type  1   force =     0.00000039    0.00005809    0.00001553
     atom    8 type  1   force =     0.00002854    0.00000050    0.00002882
     atom    9 type  1   force =     0.00017230   -0.00000051    0.00017157
     atom   10 type  1   force =    -0.00004722   -0.00002363    0.00012470
     atom   11 type  1   force =     0.00012405   -0.00002287   -0.00004699
     atom   12 type  1   force =     0.00017554   -0.00000080    0.00024428
     atom   13 type  1   force =    -0.00034951   -0.00000030   -0.00030307
     atom   14 type  1   force =     0.00047586    0.00025158    0.00004528
     atom   15 type  1   force =     0.00000168   -0.00005785    0.00001643
     atom   16 type  1   force =     0.00008421   -0.00000041    0.00011172
     atom   17 type  1   force =     0.00015300    0.00000033   -0.00013946
     atom   18 type  1   force =     0.00001514    0.00005779    0.00000049
     atom   19 type  1   force =     0.00004557   -0.00025160    0.00047752
     atom   20 type  1   force =     0.00011830    0.00000035    0.00011839
     atom   21 type  1   force =     0.00026601    0.00000073    0.00026569
     atom   22 type  1   force =    -0.00026291   -0.00015305    0.00007956
     atom   23 type  1   force =     0.00007990   -0.00015170   -0.00026273
     atom   24 type  1   force =     0.00024417   -0.00000058    0.00017656
     atom   25 type  1   force =    -0.00030218   -0.00000050   -0.00035009
     atom   26 type  1   force =     0.00001587   -0.00005773    0.00000086
     atom   27 type  1   force =     0.00004537    0.00025125    0.00047692
     atom   28 type  1   force =    -0.00022452    0.00000041   -0.00022450
     atom   29 type  1   force =    -0.00017192   -0.00000070   -0.00017167
     atom   30 type  1   force =    -0.00026269    0.00015365    0.00007807
     atom   31 type  1   force =     0.00007947    0.00015246   -0.00026223

     Total force =     0.002214     Total SCF correction =     0.001081
     SCF correction compared to forces is large: reduce conv_thr to get better values

     Entering FIRE :       iteration =   104

     FIRE Parameters: P = 0.00000005, dt = 11.79, alpha = 0.200 nsteppos =   5 at step104


ATOMIC_POSITIONS (angstrom)
Al            0.0125423351        0.0000524454        0.0126337006
Al            1.9599921397        1.9548229090        0.0055825428
Al            0.0055002235        1.9548264202        1.9600755879
Al            3.9127100624        0.0000559308        0.0061903141
Al           -1.9117096840        0.0000522110        1.9591920197
Al           -1.9138060764        1.9470468590        0.0132839581
Al            3.9137424949        1.9541310916        1.9605998616
Al            0.0133800208        3.8721047623        0.0134639233
Al            1.9593972548        3.8721091540        1.9594851393
Al            1.9599924249       -1.9547096629        0.0055832347
Al            0.0055005226       -1.9547132087        1.9600787089
Al            3.9055252687        3.8721110471        0.0133064417
Al           -1.9110707676        3.8721094264        1.9610133635
Al           -1.9138016022       -1.9469367277        0.0132863857
Al            3.9137359108       -1.9540213744        1.9605965010
Al            0.0061071870        0.0000581485        3.9127976371
Al            1.9590951378        0.0000534257       -1.9116236154
Al            1.9605168742        1.9541351980        3.9138299732
Al            0.0131970891        1.9470464592       -1.9137229730
Al            3.9135414943        0.0000522078        3.9136278509
Al           -1.9117305079        0.0000526544       -1.9116427383
Al           -1.9116043722        1.9469491713        3.9064814515
Al            3.9063933710        1.9469425131       -1.9115184763
Al            0.0132212129        3.8721099802        3.9056076408
Al            1.9609235411        3.8721094922       -1.9109803729
Al            1.9605133549       -1.9540248974        3.9138283719
Al            0.0131993918       -1.9469352145       -1.9137201152
Al            3.9074641245        3.8721051813        3.9075512121
Al           -1.9110286841        3.8721106486       -1.9109430737
Al           -1.9116059759       -1.9468409062        3.9064866968
Al            3.9063937637       -1.9468355807       -1.9115206180



     Writing config-only to output data dir ./pwscf.save/
     NEW-OLD atomic charge density approx. for the potential

     total cpu time spent up to now is       28.6 secs

     Self-consistent Calculation

     iteration #  1     ecut=     7.00 Ry     beta= 0.50
     Davidson diagonalization with overlap
     ethr =  1.00E-06,  avg # of iterations =  2.0

     Threshold (ethr) on eigenvalues was too large:
     Diagonalizing with lowered threshold

     Davidson diagonalization with overlap
     ethr =  3.15E-08,  avg # of iterations =  1.0

     total cpu time spent up to now is       28.6 secs

     total energy              =    -127.21046027 Ry
     estimated scf accuracy    <       0.00003493 Ry

     iteration #  2     ecut=     7.00 Ry     beta= 0.50
     Davidson diagonalization with overlap
     ethr =  3.76E-08,  avg # of iterations =  1.0

     total cpu time spent up to now is       28.6 secs

     total energy              =    -127.21045893 Ry
     estimated scf accuracy    <       0.00000939 Ry

     iteration #  3     ecut=     7.00 Ry     beta= 0.50
     Davidson diagonalization with overlap
     ethr =  1.01E-08,  avg # of iterations =  3.0

     total cpu time spent up to now is       28.7 secs

     total energy              =    -127.21046034 Ry
     estimated scf accuracy    <       0.00000156 Ry

     iteration #  4     ecut=     7.00 Ry     beta= 0.50
     Davidson diagonalization with overlap
     ethr =  1.68E-09,  avg # of iterations =  2.0

     total cpu time spent up to now is       28.7 secs

     End of self-consistent calculation

          k = 0.0000 0.0000 0.0000 (   949 PWs)   bands (ev):

    -2.7929  -0.4701  -0.4674  -0.3982  -0.3965  -0.3946   0.0042   1.8585
     1.8594   1.8629   1.9040   1.9058   1.9073   1.9097   1.9118   2.1677
     2.1681   2.1703   2.8965   3.7946   4.0199   4.0202   4.0204   4.5567
     4.5569   4.5569   5.3460   5.8185   5.8190   5.8194   7.5584   7.5587
     7.8136   7.8144   7.8166   7.8192   7.8373   7.8374   7.8423   8.0017
     8.0023   8.0035   8.3136   8.3141   8.3143   8.7187   8.9371   8.9393
     8.9398   9.0653   9.0687  10.0202  10.0235  10.0452  10.0455  10.0489

     the Fermi energy is     8.7051 ev

!    total energy              =    -127.21046051 Ry
     estimated scf accuracy    <       0.00000002 Ry
     smearing contrib. (-TS)   =       0.08491064 Ry
     internal energy E=F+TS    =    -127.29537115 Ry

     convergence has been achieved in   4 iterations
  * IN ARTn_QE::          31
 Elements:Al 
     !> CLEANING ARTn | Fail: 0
 ARTn calculation converged, stopping
  * PLUGIN_EXT_FORCE::   1.000000000000000E-003   1.00000000000000     

     Forces acting on atoms (cartesian axes, Ry/au):

     atom    1 type  1   force =     0.00000000    0.00000000    0.00000000
     atom    2 type  1   force =     0.00000000    0.00000000    0.00000000
     atom    3 type  1   force =     0.00000000    0.00000000    0.00000000
     atom    4 type  1   force =     0.00000000    0.00000000    0.00000000
     atom    5 type  1   force =     0.00000000    0.00000000    0.00000000
     atom    6 type  1   force =     0.00000000    0.00000000    0.00000000
     atom    7 type  1   force =     0.00000000    0.00000000    0.00000000
     atom    8 type  1   force =     0.00000000    0.00000000    0.00000000
     atom    9 type  1   force =     0.00000000    0.00000000    0.00000000
     atom   10 type  1   force =     0.00000000    0.00000000    0.00000000
     atom   11 type  1   force =     0.00000000    0.00000000    0.00000000
     atom   12 type  1   force =     0.00000000    0.00000000    0.00000000
     atom   13 type  1   force =     0.00000000    0.00000000    0.00000000
     atom   14 type  1   force =     0.00000000    0.00000000    0.00000000
     atom   15 type  1   force =     0.00000000    0.00000000    0.00000000
     atom   16 type  1   force =     0.00000000    0.00000000    0.00000000
     atom   17 type  1   force =     0.00000000    0.00000000    0.00000000
     atom   18 type  1   force =     0.00000000    0.00000000    0.00000000
     atom   19 type  1   force =     0.00000000    0.00000000    0.00000000
     atom   20 type  1   force =     0.00000000    0.00000000    0.00000000
     atom   21 type  1   force =     0.00000000    0.00000000    0.00000000
     atom   22 type  1   force =     0.00000000    0.00000000    0.00000000
     atom   23 type  1   force =     0.00000000    0.00000000    0.00000000
     atom   24 type  1   force =     0.00000000    0.00000000    0.00000000
     atom   25 type  1   force =     0.00000000    0.00000000    0.00000000
     atom   26 type  1   force =     0.00000000    0.00000000    0.00000000
     atom   27 type  1   force =     0.00000000    0.00000000    0.00000000
     atom   28 type  1   force =     0.00000000    0.00000000    0.00000000
     atom   29 type  1   force =     0.00000000    0.00000000    0.00000000
     atom   30 type  1   force =     0.00000000    0.00000000    0.00000000
     atom   31 type  1   force =     0.00000000    0.00000000    0.00000000

     Total force =     0.000000     Total SCF correction =     0.000112

     FIRE: convergence achieved in 104 steps

     End of FIRE minimization

     Final energy =    -127.2104605061 Ry

Begin final coordinates
     new unit-cell volume =   3134.08131 a.u.^3 (   464.42293 Ang^3 )
     density =      0.11084 g/cm^3

CELL_PARAMETERS (alat=  7.65339080)
   1.912124634   0.000000000   0.000000000
   0.000000000   1.912124634   0.000000000
   0.000000000   0.000000000   1.912124634

ATOMIC_POSITIONS (angstrom)
Al           -0.0179194864        0.0000000000       -0.0179194864
Al            1.9359944404        1.9539058065       -0.0179168077
Al           -0.0179168077        1.9539058065        1.9359944404
Al            3.8899718704        0.0000000000       -0.0179194864
Al           -1.9359944404        0.0000000000        1.9359944404
Al           -1.9359944404        1.9464262267       -0.0104478500
Al            3.8899691917        1.9539131229        1.9360017568
Al           -0.0104433294        3.8720523840       -0.0104433294
Al            1.9360017568        3.8720523840        1.9360017568
Al            1.9359944404       -1.9539058065       -0.0179168077
Al           -0.0179168077       -1.9539058065        1.9359944404
Al            3.8824957134        3.8720523840       -0.0104433294
Al           -1.9360017568        3.8720523840        1.9360017568
Al           -1.9359944404       -1.9464262267       -0.0104478500
Al            3.8899691917       -1.9539131229        1.9360017568
Al           -0.0179194864        0.0000000000        3.8899718704
Al            1.9359944404        0.0000000000       -1.9359944404
Al            1.9360017568        1.9539131229        3.8899691917
Al           -0.0104478500        1.9464262267       -1.9359944404
Al            3.8899718704        0.0000000000        3.8899718704
Al           -1.9359944404        0.0000000000       -1.9359944404
Al           -1.9360017568        1.9464335431        3.8825002340
Al            3.8825002340        1.9464335431       -1.9360017568
Al           -0.0104433294        3.8720523840        3.8824957134
Al            1.9360017568        3.8720523840       -1.9360017568
Al            1.9360017568       -1.9539131229        3.8899691917
Al           -0.0104478500       -1.9464262267       -1.9359944404
Al            3.8824957134        3.8720523840        3.8824957134
Al           -1.9360017568        3.8720523840       -1.9360017568
Al           -1.9360017568       -1.9464335431        3.8825002340
Al            3.8825002340       -1.9464335431       -1.9360017568
End final coordinates



     Writing all to output data dir ./pwscf.save/
 
     init_run     :      0.01s CPU      0.04s WALL (       1 calls)
     electrons    :     19.80s CPU     20.65s WALL (     105 calls)
     update_pot   :      0.14s CPU      0.17s WALL (     104 calls)
     forces       :      0.59s CPU      0.65s WALL (     105 calls)

     Called by init_run:
     wfcinit      :      0.01s CPU      0.01s WALL (       1 calls)
     potinit      :      0.00s CPU      0.00s WALL (       1 calls)
     hinit0       :      0.00s CPU      0.02s WALL (       1 calls)

     Called by electrons:
     c_bands      :     17.31s CPU     17.99s WALL (     549 calls)
     sum_band     :      1.67s CPU      1.78s WALL (     549 calls)
     v_of_rho     :      0.13s CPU      0.14s WALL (     586 calls)
     mix_rho      :      0.54s CPU      0.57s WALL (     549 calls)

     Called by c_bands:
     init_us_2    :      0.13s CPU      0.14s WALL (    1099 calls)
     init_us_2:cp :      0.13s CPU      0.14s WALL (    1099 calls)
     cegterg      :     16.96s CPU     17.61s WALL (     549 calls)

     Called by *egterg:
     cdiaghg      :      7.93s CPU      8.09s WALL (    1998 calls)
     h_psi        :      7.23s CPU      7.65s WALL (    2171 calls)
     g_psi        :      0.03s CPU      0.03s WALL (    1621 calls)

     Called by h_psi:
     h_psi:calbec :      0.56s CPU      0.60s WALL (    2171 calls)
     vloc_psi     :      6.12s CPU      6.49s WALL (    2171 calls)
     add_vuspsi   :      0.46s CPU      0.48s WALL (    2171 calls)

     General routines
     calbec       :      0.68s CPU      0.73s WALL (    2591 calls)
     fft          :      0.14s CPU      0.17s WALL (    2035 calls)
     ffts         :      0.30s CPU      0.32s WALL (    5439 calls)
     fftw         :      6.56s CPU      6.97s WALL (  189792 calls)
 
     Parallel routines
 
     PWSCF        :     26.74s CPU     28.85s WALL

 
   This run was terminated on:  18:37:47  20Jun2022            

=------------------------------------------------------------------------------=
   JOB DONE.
=------------------------------------------------------------------------------=
